/*--------------------------------*- C++ -*----------------------------------*\
| =========                 |                                                 |
| \\      /  F ield         | OpenFOAM: The Open Source CFD Toolbox           |
|  \\    /   O peration     | Version:  2112                                  |
|   \\  /    A nd           | Website:  www.openfoam.com                      |
|    \\/     M anipulation  |                                                 |
\*---------------------------------------------------------------------------*/
FoamFile
{
    version     2.0;
    format      ascii;
    arch        "LSB;label=32;scalar=64";
    class       surfaceScalarField;
    location    "19.3";
    object      phi;
}
// * * * * * * * * * * * * * * * * * * * * * * * * * * * * * * * * * * * * * //

dimensions      [0 3 -1 0 0 0 0];

oriented        oriented;

internalField   nonuniform List<scalar> 
43645
(
0.39512383188973
-4.9588822781728e-06
0.3951386624653
-1.4830643412996e-05
0.39516335738095
-2.4694989073099e-05
0.3951978939372
-3.4536632137117e-05
0.39524223533787
-4.4341476895518e-05
0.39529634102094
-5.4105758564625e-05
0.39536016932027
-6.3828373402808e-05
0.39543367341644
-7.3504168638658e-05
0.39551679165648
-8.3118310662454e-05
0.39560944622058
-9.265463295595e-05
0.39571153877347
-0.00010209261982635
0.39582296072052
-0.00011142201221939
0.39594358690177
-0.0001206262445071
0.396073295271
-0.00012970843081433
0.39621194460729
-0.00013864939605333
0.39635941149701
-0.00014746694795704
0.39651553292261
-0.0001561214821922
0.39668018875215
-0.000164655884807
0.39685317176024
-0.00017298306195145
0.39703438124152
-0.0001812095340924
0.39722352991948
-0.00018914872961974
0.39742058945609
-0.00019705958750796
0.39762511922247
-0.00020452981639388
0.39783728117046
-0.00021216199752858
0.39805630421255
-0.00021902309100641
0.39828279740483
-0.00022649324098308
0.39851525292227
-0.00023245556572471
0.39875531303801
-0.00024006016338531
0.39899982442326
-0.00024451143174045
-0.00025293898286921
0.39925276335895
0.37294719605464
-9.6002969821837e-06
0.37296117133211
-2.8806030467424e-05
0.37298461466098
-4.8138429544581e-05
0.3730175004622
-6.7422544867801e-05
0.373059789996
-8.6631120757587e-05
0.37311144721327
-0.00010576308397148
0.37317243710732
-0.0001248183732469
0.3732427178285
-0.00014378499330449
0.37332223079018
-0.00016263137329944
0.37341090098782
-0.00018132492916589
0.37350863436422
-0.00019982609221224
0.37361532842736
-0.0002181161689942
0.3737308660222
-0.00023616393043632
0.37385513409377
-0.00025397659123406
0.37398800171166
-0.00027151710039424
0.37412935566146
-0.0002888209822055
0.37427904433976
-0.00030581024280155
0.37443695742327
-0.0003225690489605
0.37460289949291
-0.00033892521042509
0.37477677786611
-0.00035508798481919
0.3749583186561
-0.00037068959569137
0.3751474992202
-0.00038624022678121
0.37534389799311
-0.00040092866337531
0.37554767847718
-0.00041594255510917
0.37575810181484
-0.00042944650140255
0.37597576796863
-0.00044415946727464
0.37619923099943
-0.00045591866849158
0.37643009841479
-0.00047092764975387
0.37666534732718
-0.00047976041247609
-0.00049647845478065
0.37690888672895
0.35201547948135
-1.4182361417806e-05
0.35202923254708
-4.2559211047931e-05
0.35205218807552
-7.1094073168563e-05
0.35208432162694
-9.9556210203472e-05
0.35212559927714
-0.0001279088825753
0.35217598993153
-0.0001561538474706
0.35223546143335
-0.00018428998130403
0.35230397161126
-0.00021229527475721
0.35238145972629
-0.00024011958887515
0.35246784972214
-0.00026771502284767
0.35256304935377
-0.00029502581863646
0.35266696162105
-0.00032202852842202
0.35277947736414
-0.00034867976272497
0.35290049401172
-0.00037499332553821
0.35302989159184
-0.00040091476452837
0.35316756969212
-0.00042649916435948
0.35331338777145
-0.00045162840164041
0.3534672487653
-0.00047643012061629
0.35362896542353
-0.00050064194453376
0.3537984585574
-0.00052458119336364
0.35397545751053
-0.00054768862201354
0.35415995735939
-0.00057074014812891
0.35435153233181
-0.00059250370725236
0.35455037610283
-0.00061478639732121
0.35475572837507
-0.00063479884422436
0.35496824532881
-0.00065667649173659
0.35518641428807
-0.00067408769818898
0.35541195267228
-0.00069646610387512
0.35564165906336
-0.00070946687093788
-0.00073447011873082
0.35587965065739
0.33225856121563
-1.8699712424522e-05
0.33227213670764
-5.613480476174e-05
0.33229477038023
-9.3727847951182e-05
0.3323264204363
-0.00013120636749797
0.33236704880382
-0.00016853734935164
0.33241662908227
-0.00020573422304354
0.33247513355806
-0.00024279455169019
0.33254251956704
-0.00027968137598131
0.33261872228755
-0.00031632239892594
0.33270366250991
-0.00035265533232579
0.33279724855597
-0.00038861194906589
0.33289938906541
-0.00042416911984042
0.33300998391412
-0.00045927469072885
0.33312894307041
-0.00049395255892263
0.3332561596243
-0.00052813139302985
0.33339154891947
-0.00056188853225444
0.33353498347303
-0.00059506302576491
0.33368638264757
-0.00062782936424891
0.33384556795074
-0.00065982731503554
0.33401247705024
-0.00069149035916646
0.33418684055853
-0.00072205219527331
0.33436867650488
-0.00075257615885635
0.33455754880681
-0.00078137607262819
0.33475369235447
-0.0008109300082416
0.33495631123187
-0.00083741778430363
0.33516614408585
-0.00086650940856146
0.33538158234884
-0.00088952602371721
0.3356045205719
-0.00091940438898731
0.33583152424708
-0.00093647060582378
-0.00097005732550868
0.33606711139164
0.31361052496816
-2.3167386346752e-05
0.31362397244556
-6.9582373345557e-05
0.31364637434039
-0.00011612983406914
0.31367767516497
-0.00016250728221449
0.31371783304954
-0.00020869532200298
0.31376682658124
-0.00025472784066635
0.31382463339612
-0.00030060144992179
0.31389121116206
-0.00034625922291554
0.3139664914251
-0.00039160274023867
0.31405039236121
-0.0004365563442951
0.31414282394298
-0.00048104360393509
0.31424370239298
-0.00052504764061605
0.31435293921589
-0.00056851158175995
0.31447046022656
-0.00061147363560521
0.3145961750912
-0.00065384632129841
0.31473001900278
-0.00069573250572338
0.31487188119156
-0.00073692527441397
0.31502170172506
-0.00077764995633809
0.31517931366674
-0.00081743931373015
0.31534467586652
-0.00085685261517127
0.31551752151667
-0.00089489790054751
0.31569789730009
-0.00093295199709027
0.31588535603284
-0.00096883485953421
0.31608018387484
-0.0010057579045443
0.31628154369982
-0.0010387776633051
0.31649027587649
-0.0010752416397844
0.31670465659683
-0.0011039067986569
0.31692679423845
-0.0011415420851719
0.31715296287791
-0.0011626392980858
-0.0012052470593755
0.31738815255605
0.29600912118389
-2.758678950412e-05
0.2960224476759
-8.2908949472386e-05
0.29604462824949
-0.00013831049173505
0.29607559499434
-0.00019347411007958
0.29611530424035
-0.0002484046491336
0.2961637418131
-0.00030316549262424
0.29622089266873
-0.00035775238244744
0.296286716319
-0.00041208294799689
0.29636114202071
-0.0004660285142703
0.29644408699818
-0.0005195013919487
0.29653546518271
-0.00057242185609995
0.2966352034311
-0.00062478595454254
0.29674322855395
-0.00067653676767191
0.29685948643126
-0.00072773157407705
0.29698390786262
-0.00077826781156011
0.29711645279933
-0.00082827749974425
0.2972570320813
-0.00087750461176413
0.29740561159422
-0.00092622952344976
0.2975620405648
-0.00097386833697061
0.29772630411756
-0.0010211162198249
0.29789814194477
-0.0010667357785349
0.29807763500865
-0.0011124451114191
0.29826432776349
-0.0011555276640706
0.29845856487124
-0.0011999950620798
0.29865946736043
-0.0012396802018753
0.29886798822209
-0.0012837625512397
0.29908227874285
-0.0013181973690838
0.29930468152643
-0.0013639449182745
0.29953114895963
-0.0013891067790707
-0.0014412837998617
0.29976718564944
0.27939559252218
-3.1944862237631e-05
0.27940876135323
-9.6077855221558e-05
0.27943066015044
-0.00016020936342889
0.27946120962883
-0.0002240236618853
0.27950036609448
-0.00028756118637606
0.27954812492732
-0.0003509243952902
0.27960448068207
-0.00041410820483161
0.27966939672865
-0.00047699906027326
0.27974280206177
-0.00053943391073979
0.2798246153656
-0.0006013147571548
0.27991475760383
-0.00066256415331422
0.2800131699783
-0.00072319838606966
0.28011979894604
-0.0007831657901609
0.28023461520853
-0.00084254788958932
0.28035757594379
-0.00090122859774349
0.28048867129181
-0.00095937289727629
0.28062783952334
-0.0010166728910352
0.28077507804095
-0.0010734680877869
0.28093025826864
-0.0011290486099874
0.28109339724919
-0.0011842552451259
0.28126424727932
-0.0012375858524252
0.28144292919491
-0.0012911270706152
0.2816289851564
-0.0013415836685816
0.28182282416314
-0.0013938341120783
0.282023530768
-0.0014403868497423
0.28223217726465
-0.0014924090914624
0.28244679253763
-0.001532812685653
0.28266996393087
-0.0015871163551721
0.2828973164541
-0.0016164593445676
-0.0016788612929073
0.28313489390184
0.2637144821826
-3.6217658906374e-05
0.26372742279479
-0.00010901853519869
0.2637489245332
-0.00018171116938226
0.26377889822563
-0.00025399742096881
0.26381730185113
-0.00032596487696234
0.26386414236232
-0.00039776497009962
0.2639194260608
-0.00046939196505671
0.26398312236875
-0.0005406954283719
0.26405516245878
-0.00061147405887791
0.26413546932396
-0.00068162167877336
0.26422397443317
-0.00075106931684578
0.26432063731883
-0.00081986132440705
0.26442542871122
-0.00088795723314907
0.26453834907311
-0.00095546830058611
0.26465938755091
-0.0010222671227083
0.26478857010635
-0.0010885554986372
0.26492586887228
-0.0011539717012098
0.26507131878823
-0.0012189180470462
0.26522482068608
-0.0012825505497689
0.26538642958967
-0.0013458641900759
0.26555591854966
-0.0014070748527332
0.26573345405058
-0.0014686626116215
0.26591858545788
-0.0015267151152338
0.26611179091591
-0.0015870396095582
0.26631212964568
-0.0016407256185062
0.26652079619581
-0.001701075680929
0.2667357100023
-0.0017477265312246
0.2669597030985
-0.0018111094903059
0.26718808686307
-0.0018448431466227
-0.0019182167493905
0.26742744227929
0.24891344870071
-4.0373726006811e-05
0.24892606635051
-0.00012163624465577
0.24894701710779
-0.00020266198606719
0.24897620346858
-0.00028318384039034
0.24901358658924
-0.0003633480548624
0.24905918664426
-0.00044336508114176
0.24911302356545
-0.0005232289406299
0.24917507498599
-0.00060274690194448
0.24924527682898
-0.00068167595311093
0.24932355936058
-0.00075990426022104
0.24940986807275
-0.00083737807699373
0.24950418470693
-0.00091417800519988
0.24960650877479
-0.00099028134576243
0.24971687520802
-0.0010658347773166
0.24983531063612
-0.0011407025925907
0.24996188226647
-0.0012151271697267
0.2500966027292
-0.0012886922031681
0.25023955045525
-0.0013618658115556
0.25039066368945
-0.0014336638211869
0.2505500415738
-0.0015052421111882
0.25071748779301
-0.0015745211077561
0.25089322005619
-0.0016443949104704
0.25107680748462
-0.0017103025786489
0.25126880094771
-0.0017790331077625
0.25146825099427
-0.0018401756997413
0.25167647308003
-0.0019092978017093
0.25189130032183
-0.0019625538077547
0.25211579854982
-0.0020356077528926
0.25234499941868
-0.0020740440487825
-0.0021592113840923
0.2525859940174
0.23494309103966
-4.437725622071e-05
0.23495527592285
-0.00013382118133746
0.2349754985164
-0.00022288463291839
0.23500365424408
-0.00031133962079509
0.23503970861401
-0.00039940247638172
0.2350836962006
-0.00048735271838977
0.23513565200521
-0.00057518479456228
0.23519556370734
-0.00066265865236312
0.23526337434958
-0.00074948664215765
0.23533902420999
-0.00083555416635952
0.23542247600795
-0.00092082991909171
0.23551373707424
-0.0010054391145449
0.23561283966322
-0.0010893839761953
0.23571985720693
-0.001172852361473
0.23583485880072
-0.0012557042252885
0.23595795766899
-0.0013382260760423
0.23608921332593
-0.0014199478967729
0.23622875315497
-0.001501405676592
0.23637656117066
-0.0015814718716929
0.23653278643685
-0.0016614674117464
0.23669727442352
-0.0017390091278229
0.23687029915897
-0.001817419679114
0.23705146479953
-0.0018914682516307
0.23724139687256
-0.0019689652132111
0.23743915904977
-0.0020379379087608
0.23764618215159
-0.0021163209354836
0.2378602463061
-0.0021766179936994
0.23808462973682
-0.0022599912147235
0.23831413904483
-0.0023035533865283
-0.0024013964575831
0.2385563240862
0.22175678367659
-4.8191187430061e-05
0.22176841997163
-0.00014545752368044
0.22178772873992
-0.0002421934483672
0.22181459882981
-0.00033820975741712
0.22184900091603
-0.00043380460841097
0.22189098458238
-0.00052933642985925
0.22194060065337
-0.0006248009095839
0.22199784807913
-0.00071990612139136
0.22206267890504
-0.00081431751011253
0.22213504563567
-0.0009079209382238
0.22221493080054
-0.0010007151238821
0.22230236990361
-0.0010928782567175
0.22239743103212
-0.0011844451424501
0.22250022912397
-0.0012756504902912
0.2226108797966
-0.0013663549335817
0.22272954599667
-0.0014568923110907
0.2228563398033
-0.0015467417371662
0.22299144206731
-0.0016365079738451
0.22313489077305
-0.0017249206095945
0.22328688990765
-0.0018134665781612
0.22344733864584
-0.0018994578969097
0.22361657141735
-0.0019866524813588
0.22379424485623
-0.0020691417204807
0.22398105925294
-0.0021557796398766
0.22417611811451
-0.0022329967996441
0.22438095748676
-0.0023211603371241
0.22459334801963
-0.0023890085553589
0.22481674820912
-0.0024833914326173
0.22504581522625
-0.002532620430717
-0.0026440627197685
0.22528848145913
0.2093105203582
-5.1779635607053e-05
0.20932149620544
-0.00015643341339353
0.2093397103481
-0.00026040763345137
0.20936504576156
-0.00036354521303576
0.20939747878835
-0.00046623767665772
0.2094370739691
-0.00056893165160018
0.20948389799596
-0.00067162497658815
0.20953796171221
-0.00077396987727658
0.20959922746369
-0.00087558330027151
0.20966766153061
-0.00097635504325825
0.2097432680036
-0.001076321633937
0.20982611204476
-0.001175722334347
0.20991629945681
-0.0012746325898554
0.21001398833029
-0.001373339398545
0.21011934355556
-0.0014717101925178
0.21023258004134
-0.0015701288300065
0.2103538669414
-0.0016680286692816
0.21048344166713
-0.0017660827311974
0.21062140367704
-0.0018628826501406
0.21076801555995
-0.0019600784913649
0.21092324227367
-0.0020546846400272
0.21108748129265
-0.0021508915295285
0.2112604608423
-0.0022421212985119
0.21144295358727
-0.002338272413116
0.2116341338999
-0.0024241771398075
0.21183562806568
-0.0025226545303816
0.21204525072449
-0.0025986312409057
0.21226659719402
-0.0027047379283807
0.21249427262057
-0.002760295882124
-0.0028862795177249
0.21273648939165
0.19756276631241
-5.5109453860795e-05
0.19757298147887
-0.00016664861808969
0.19758993592006
-0.00027736211290759
0.1976135082236
-0.00038711755471899
0.1976436806763
-0.00049641016696195
0.19768053208777
-0.00060578310039838
0.19772414436337
-0.00071523728886369
0.19777454022363
-0.00082436577391027
0.19783169305111
-0.00093273616337608
0.1978955836376
-0.0010402456650136
0.19796623829586
-0.0011469763266252
0.19804375205611
-0.001253236128644
0.19812826891325
-0.0013591494801465
0.19821999011844
-0.0014650606364924
0.19831913096911
-0.001570851075009
0.19842595878505
-0.0016769566773891
0.19854070274996
-0.0017827726647074
0.19866365810049
-0.0018890381118924
0.19879499208293
-0.0019942166618455
0.19893502773169
-0.0021001141690912
0.19908380744754
-0.0022034643839867
0.19924179229858
-0.002308876408446
0.19940880214309
-0.0024091311700937
0.19958567682509
-0.0025151471220299
0.19977169639012
-0.0026101967309773
0.19996855675078
-0.0027195149170281
0.20017417964732
-0.0028042541626523
0.20039224134765
-0.0029227996533342
0.20061741513245
-0.0029854696902018
-0.0031269274085402
0.20085806299807
0.18647432056175
-5.815267831849e-05
0.18648368950567
-0.0001760175970564
0.18649924240839
-0.00029291505080581
0.18652085487704
-0.0004087300585535
0.18654851518003
-0.00052407050472531
0.18658231515955
-0.00063958311455933
0.18662235055706
-0.00075527272050512
0.1866686551222
-0.00087067037302488
0.18672121302185
-0.00098529409641661
0.18678001937536
-0.0010990520517155
0.18684512246014
-0.001212079443937
0.18691664607613
-0.0013247597769456
0.18699477130986
-0.0014372747454599
0.18707974088175
-0.0015500302397381
0.18717181985784
-0.0016629300816737
0.18727132641489
-0.0017764632647616
0.18737855090258
-0.0018899971819029
0.18749384547291
-0.0020043327114433
0.18761744991618
-0.0021178211334901
0.1877497471937
-0.0022324114746962
0.18789086787612
-0.0023445850936311
0.18804133442296
-0.002459342982222
0.18820107873095
-0.0025688755041794
0.18837099877302
-0.0026850671899206
0.18855051817616
-0.0027897161591165
0.18874137570263
-0.0029103724682183
0.18894167351381
-0.0030045519977129
0.18915509858601
-0.0031362247487694
0.18937654147338
-0.0032069125994919
-0.0033647242206045
0.18961433826169
0.17600818347473
-6.0887423338629e-05
0.17601663838693
-0.00018447254188094
0.17603067704788
-0.00030695374459346
0.17605017315205
-0.00042822619562883
0.17607512050091
-0.00054901788616034
0.17610562216636
-0.0006700848125193
0.17614178572983
-0.00079143631606243
0.17618365451834
-0.00091253919351026
0.17623122259448
-0.0010328622040332
0.17628449824672
-0.0011523277353232
0.17634355009012
-0.0012711313181605
0.17640852831248
-0.0013897380300252
0.17647964868814
-0.0015083951512563
0.17655719196829
-0.0016275735498958
0.17664147053309
-0.0017472086758701
0.17673284981253
-0.0018678425734252
0.17683168052634
-0.0019888279242376
0.17693836839384
-0.0021110206072331
0.17705322880346
-0.0022326815706132
0.17717670117555
-0.0023558838739717
0.17730901404651
-0.0024768979909192
0.17745074516131
-0.0026010741229633
0.17760195920428
-0.0027200895722066
0.17776359786225
-0.002846705872545
0.17793526894739
-0.0029613872680135
0.17811871775912
-0.0030938213033194
0.17831231030548
-0.0031981445665583
0.17851963695553
-0.00334355142062
0.17873610607502
-0.0034233817395434
-0.0035982229935329
0.17896960482557
0.16612943306341
-6.3298535362648e-05
0.16613692598617
-0.00019196549558997
0.16614937028089
-0.00031939807049723
0.16616663859754
-0.00044549454352352
0.16618872950125
-0.00057110882079072
0.16621575500189
-0.00069711034395908
0.1662478319931
-0.00082351333762344
0.16628501138093
-0.00094971861151843
0.16632729557654
-0.001075146429301
0.16637470416121
-0.0011997363495127
0.16642732358788
-0.001323750773846
0.16648532674101
-0.0014477412120942
0.16654896004695
-0.00157202848565
0.16661853747789
-0.0016971510092343
0.16669441460553
-0.0018230858314087
0.16677699848022
-0.0019504264759265
0.16686669748442
-0.002078526955645
0.16696396500808
-0.0022082881578772
0.16706919337978
-0.0023379099685581
0.16718287146516
-0.0024695619852145
0.16730533499013
-0.0025993615408564
0.16743720561393
-0.0027329447712088
0.16757870374045
-0.0028615877221909
0.16773079180667
-0.0029987939616456
0.16789330995093
-0.0031239054341443
0.16806795909552
-0.0032684704692113
0.16825347214879
-0.0033836576402027
0.16845321747475
-0.0035432967662271
0.16866332379612
-0.0036334880794648
-0.0038259009528407
0.16889100173508
0.15680510791508
-6.5377787936669e-05
0.15681161150537
-0.00019846911573717
0.15682241530697
-0.00033020190208654
0.15683739152525
-0.00046047079170572
0.15685654240469
-0.00059025972963213
0.15687998633125
-0.00072055429958514
0.15690784665796
-0.00085137369273337
0.1569401795159
-0.00098205149746178
0.15697699361852
-0.0011119605592268
0.15701831735319
-0.0012410601111676
0.1570642516311
-0.001369685078161
0.15711498751697
-0.0014984771242087
0.15717079687561
-0.0016278378700839
0.15723202063398
-0.0017583747933744
0.15729905174083
-0.0018901169636151
0.15737233193004
-0.0020237066904418
0.15745232228674
-0.0021585173371383
0.15753951615871
-0.0022954820544312
0.15763438161504
-0.0024327754487391
0.15773744721866
-0.0025726276122395
0.15784916338513
-0.0027110777297583
0.15797017824717
-0.0028539596549909
0.15810089484915
-0.0029923043447622
0.1582422584762
-0.0031401576084683
0.15839440711938
-0.0032760540959122
0.15855891806406
-0.0034329814316895
0.15873501070178
-0.0035597502946901
0.15892577979439
-0.0037340658748533
0.15912790254807
-0.0038356108483209
-0.0040462562839343
0.15934825786224
0.14800409691712
-6.7123802095225e-05
0.14800960420637
-0.00020397643452118
0.14801875476775
-0.00033935249291923
0.14803142090716
-0.0004731369600796
0.14804760731755
-0.00060644616803832
0.14806743595286
-0.00074038296209442
0.14809103357575
-0.00087497134168726
0.14811845906028
-0.0010094770071771
0.14814972512766
-0.0011432266506998
0.14818486619781
-0.0012762012047316
0.14822399361711
-0.0014088125200661
0.14826731150538
-0.0015417950347471
0.14831511080172
-0.0016756371881888
0.14836775256988
-0.0018110165832322
0.14842565932098
-0.0019480237360465
0.14848929991055
-0.0020873473013115
0.14855918026183
-0.0022283977092784
0.14863582638939
-0.0023721282026384
0.14871977559835
-0.0025167246776194
0.148811588526
-0.002664440559241
0.14891182928626
-0.0028113185083074
0.14902115817523
-0.0029632885613299
0.14914017751622
-0.0031113237017511
0.1492697784881
-0.0032697585952065
0.14941046124196
-0.0034167368631845
0.14956357741676
-0.003586097618788
0.14972902047626
-0.0037251933653226
0.14990928532015
-0.0039143307291027
0.15010204165082
-0.0040283671888424
-0.0042575473381895
0.15031333269355
0.13969703484624
-6.8541416295944e-05
0.13970155778025
-0.00020849939960711
0.13970907371109
-0.00034686845455786
0.13971945544685
-0.00048351872544593
0.13973270856431
-0.00061969931334873
0.1397489557161
-0.00075663014005731
0.13976832412458
-0.00089433977440524
0.13979087293272
-0.0010320258379181
0.13981661642101
-0.0011689701598709
0.13984559211546
-0.001305176918842
0.13987791748041
-0.001441137903501
0.13991380445543
-0.0015776820276383
0.13995355596419
-0.001715388714173
0.13999754620616
-0.0018550068422736
0.14004621770539
-0.0019966952520018
0.14010005917851
-0.0021411887911153
0.14015960943167
-0.0022879479787221
0.14022542237681
-0.0024379411638071
0.14029808993871
-0.0025893922548114
0.14037820574117
-0.0027445563762842
0.1404664277126
-0.0028995404931014
0.14056343832849
-0.0030602991893783
0.14067000955978
-0.0032178949435291
0.14078699871347
-0.0033867477578302
0.14091523285266
-0.0035449710094781
0.14105587485613
-0.0037267396278299
0.14120948603243
-0.0038788045457627
0.14137786790497
-0.0040827126049715
0.14156026857248
-0.0042107678595826
-0.0044581810592953
0.14176090228875
0.13185620370158
-6.9640420017091e-05
0.13185977043736
-0.00021206617258534
0.13186569811869
-0.00035279617303388
0.13187386019485
-0.0004916808367531
0.13188426104032
-0.00063010019109126
0.13189702100443
-0.00076939013351241
0.13191226528407
-0.00090958408036336
0.13193005127097
-0.0010498118484952
0.13195039257139
-0.0011893114814525
0.13197332660173
-0.0013281109684855
0.13199897234904
-0.0014667836684835
0.13202754397501
-0.0016062536703207
0.13205934932248
-0.0017471940775365
0.13209476858141
-0.0018904261168016
0.13213425445113
-0.002036181136944
0.13217830806729
-0.0021852424224054
0.13222748745974
-0.0023371273858879
0.13228237028196
-0.0024928240003964
0.13234358241777
-0.0026506044041544
0.13241175799418
-0.0028127319652981
0.13248761105791
-0.0029753935679664
0.13257188276428
-0.0031445709052764
0.13266543866429
-0.0033114508509854
0.13276919049676
-0.003490499595631
0.13288414372735
-0.0036599242430456
0.13301143177576
-0.0038540276770949
0.13315209795578
-0.004019470724776
0.13330754974062
-0.0042381643878496
0.13347847144511
-0.0043816895623679
-0.0046464522950028
0.13366674268079
0.12445543961571
-7.0433738628878e-05
0.12445808998818
-0.0002147165971341
0.12446249906162
-0.00035720529983764
0.12446853940102
-0.00049772122715685
0.12447621123167
-0.00063777206877088
0.12448562980479
-0.00077880874942591
0.12449691612487
-0.00092087043899397
0.12451012440115
-0.0010630201596423
0.1245252662688
-0.0012044533806583
0.12454237595755
-0.0013452206862987
0.12456156972821
-0.0014859774661546
0.1245830576684
-0.0016277416362361
0.12460714608767
-0.001771282521506
0.12463421245295
-0.0019174925062981
0.12466471142476
-0.002066680132469
0.12469914617947
-0.002219677200572
0.12473808382803
-0.0023760650573591
0.12478211695181
-0.0025368571465011
0.12483188928378
-0.0027003767573636
0.12488807659701
-0.0028689192984356
0.12495140998322
-0.0030387269721667
0.12502272928676
-0.0032158902245858
0.12510288914379
-0.0033916107210632
0.1251930200758
-0.003580630537823
0.12529401766443
-0.0037609218387425
0.12540740086965
-0.0039674108864604
0.12553393611671
-0.0041460059734445
0.12567563293594
-0.0043798612073354
0.12583351902095
-0.0045395756479737
-0.0048220631470888
0.12600912986995
0.11747004872353
-7.0938746120554e-05
0.1174718311994
-0.0002164991524511
0.11747481006198
-0.00036018424497724
0.11747885223365
-0.00050176347917693
0.11748395092635
-0.00064287083717702
0.11749021515405
-0.00078507304761058
0.11749775935636
-0.00092841470664794
0.1175066335509
-0.0010718944150258
0.11751684659335
-0.0012146664801173
0.11752842656645
-0.001356800713459
0.11754148326289
-0.001499034214331
0.11755621656005
-0.0016424749835499
0.11757292674128
-0.0017879927517037
0.1175919790346
-0.0019365448477971
0.11761382513584
-0.0020885262812077
0.11763895428933
-0.0022448064009307
0.11766794049548
-0.0024050513095586
0.11770136826225
-0.0025702849582289
0.11773990505665
-0.0027389135951883
0.11778423698333
-0.0029132512664728
0.11783511867516
-0.0030896087026989
0.11789346106897
-0.0032742326538496
0.117960064619
-0.0034582143029413
0.11803637713336
-0.0036569430800645
0.11812290431551
-0.003847449044749
0.11822227937227
-0.0040667859630017
0.11833351476119
-0.0042572413786925
0.11846161151276
-0.0045079579730357
0.11860274442511
-0.0046807085745099
-0.0049873809930349
0.11876806225257
0.11087673056373
-7.1184506095766e-05
0.11087771160961
-0.0002174803154292
0.1108793701703
-0.00036184292732131
0.11088155984614
-0.00050395327447283
0.11088426436114
-0.00064557546657123
0.1108875876045
-0.00078839639963953
0.11089163900904
-0.00093246621428926
0.11089646764715
-0.0010767231515073
0.11090207732565
-0.0012202762529969
0.11090848577966
-0.001363209258867
0.11091579159737
-0.0015063401210403
0.11092417822714
-0.001650861700668
0.11093393582907
-0.0017977504395657
0.11094540986277
-0.0019480189664562
0.11095904730529
-0.0021021638075679
0.1109753075856
-0.0022610667641361
0.1109947777226
-0.0024245215279865
0.11101799973203
-0.0025935070474835
0.11104569829464
-0.0027666122351079
0.1110784882776
-0.0029460413237715
0.11111724868248
-0.0031283691778388
0.11116277033648
-0.0033197543736379
0.1112160258249
-0.0035114698519362
0.11127839263287
-0.0037193099435187
0.11135034400997
-0.003919400471849
0.11143541114996
-0.0041518531477179
0.11153085282505
-0.0043526830935176
0.1116468747464
-0.0046239799309142
0.11176706566576
-0.0048008995296353
-0.0051447724737396
0.11192445710356
0.10465348841632
-7.1207086320797e-05
0.10465376882085
-0.00021776087691077
0.10465423582327
-0.00036231008968278
0.104654744559
-0.00050446216733754
0.10465526572977
-0.00064609678934482
0.10465587849185
-0.00078900930810161
0.10465669745481
-0.00093328531839092
0.10465778828185
-0.001077814115276
0.10465915272883
-0.0012216408332062
0.10466079357076
-0.0013648502313125
0.10466279018925
-0.0015083368679997
0.10466530268339
-0.0016533743215914
0.1046686049448
-0.001801052826415
0.10467301826065
-0.0019524324063682
0.10467897782348
-0.0021081234931845
0.10468690250348
-0.0022689915652432
0.10469739327483
-0.0024350124185751
0.10471092745099
-0.0026070413401356
0.10472832459545
-0.0027840094926628
0.10475003969103
-0.0029677565276521
0.10477723878179
-0.0031555683713095
0.10481024914896
-0.0033527648367095
0.10485083892776
-0.003552059719817
0.10489906969783
-0.0037675407955602
0.1049574757865
-0.003977806635727
0.10502615774811
-0.0042205351772966
0.10510750569366
-0.0044340311007552
0.10520669512401
-0.00472316941824
0.10531610241454
-0.0049103068759802
-0.005288834923673
0.10546016479706
0.098779500943564
-7.0989924136539e-05
0.098779188580722
-0.00021744869711328
0.098778556096138
-0.00036167778938366
0.098777561752181
-0.00050346800461896
0.09877616416878
-0.00064469938256217
0.098774323104732
-0.0007871684160043
0.098772192965366
-0.00093115534681651
0.09876986108253
-0.0010754823970722
0.098767337773635
-0.001219117686522
0.098764622740943
-0.0013621353592303
0.0987617652446
-0.0015054795309219
0.098758895762075
-0.0016505049973921
0.098756265506625
-0.0017984227281544
0.098754173510281
-0.0019503405662168
0.098753029469786
-0.0021069796073647
0.098753208677184
-0.0022691709256958
0.098755297717253
-0.0024371016090923
0.098759713333949
-0.0026114571040045
0.098767338317789
-0.0027916346186121
0.098778481149678
-0.0029788994952445
0.098794594459516
-0.0031716818083958
0.09881546981166
-0.0033736403069419
0.098843907158471
-0.003580497174864
0.098878067326914
-0.0038017010630345
0.098924042534718
-0.004023781933355
0.098975353187002
-0.0042718459103758
0.099045364469157
-0.004504042455334
0.099117874563465
-0.0047956795800941
0.09921929549076
-0.005011727872241
0.099380777580464
-0.005450317095354
0.39460507523664
0.0046476880751397
0.390116700117
0.0044883750736665
0.38579215847442
0.0043245415971823
0.38163585367835
0.0041563047504723
0.37765204624842
0.0039838073841138
0.37384485495828
0.0038071912436262
0.37021825028944
0.0036266046218305
0.36677604688409
0.0034422033574576
0.36352189709854
0.0032541497371117
0.36045928627548
0.0030626107736722
0.35759152901621
0.002867757209318
0.35492176599436
0.0026697629709406
0.35245296042537
0.0024688055175521
0.35018789407315
0.0022650662998287
0.34812916296134
0.0020587310589464
0.34627917322373
0.0018499896838115
0.34464013698349
0.0016390361860434
0.34321406848285
0.0014260684455158
0.34200278023323
0.0012112881941359
0.34100787934404
0.00099490083279664
0.34023076326491
0.00077711602238985
0.33967261436108
0.00055814884614017
0.33933438786266
0.00033822644038771
0.33921675554882
0.00011763225479468
0.33932037889309
-0.00010362340368432
0.33964565188595
-0.00032527305333545
0.34019257923783
-0.00054692741273593
0.34096102379356
-0.00076844461764044
0.34195062883872
-0.00098960510739047
0.34316080825427
-0.0012101794787231
0.34459074438418
-0.0014299361932234