/*--------------------------------*- C++ -*----------------------------------*\
| =========                 |                                                 |
| \\      /  F ield         | OpenFOAM: The Open Source CFD Toolbox           |
|  \\    /   O peration     | Version:  2112                                  |
|   \\  /    A nd           | Website:  www.openfoam.com                      |
|    \\/     M anipulation  |                                                 |
\*---------------------------------------------------------------------------*/
FoamFile
{
    version     2.0;
    format      ascii;
    arch        "LSB;label=32;scalar=64";
    class       volVectorField;
    location    "19.3";
    object      U;
}
// * * * * * * * * * * * * * * * * * * * * * * * * * * * * * * * * * * * * * //

dimensions      [0 1 -1 0 0 0 0];

internalField   nonuniform List<vector> 
22000
(
(1.000001034816 -2.5860032567828e-05 0)
(1.0000267554089 -7.7437912656539e-05 0)
(1.0000761148727 -0.00012889197802175 0)
(1.0001502551172 -0.00018015635414076 0)
(1.0002496220835 -0.0002311814217211 0)
(1.0003741237185 -0.00028196749129824 0)
(1.0005234580597 -0.00033252075957082 0)
(1.0006973572723 -0.0003828206917886 0)
(1.000895625482 -0.00043279263067594 0)
(1.0011180945695 -0.00048235304564076 0)
(1.0013645579804 -0.00053139447911931 0)
(1.0016347784207 -0.00057986324668186 0)
(1.0019284567319 -0.0006276720561351 0)
(1.002245293959 -0.00067483740984612 0)
(1.002584930658 -0.00072125758932475 0)
(1.0029470603614 -0.00076702691015274 0)
(1.0033312756802 -0.0008119359657499 0)
(1.0037372844833 -0.0008562137739148 0)
(1.0041645820294 -0.00089940001413396 0)
(1.0046129099153 -0.00094206299194134 0)
(1.0050815906904 -0.00098321213909073 0)
(1.0055704871728 -0.0010242266234017 0)
(1.0060786358163 -0.0010629103575957 0)
(1.0066062038496 -0.001102476467429 0)
(1.0071516961662 -0.0011379470755397 0)
(1.0077159231185 -0.0011766975773894 0)
(1.0082963457311 -0.0012074134406721 0)
(1.0088950978603 -0.0012469669057291 0)
(1.0095076184265 -0.0012696658937974 0)
(1.0101387962447 -0.0013139996987013 0)
(1.0000004813722 -7.6144755957116e-05 0)
(1.0000262493345 -0.00022822810690056 0)
(1.0000760128633 -0.00038010570358928 0)
(1.0001508214 -0.00053151958515412 0)
(1.0002511555411 -0.00068229095521446 0)
(1.000376995382 -0.00083241159780577 0)
(1.0005280862063 -0.0009818922550782 0)
(1.0007041824249 -0.0011306594023231 0)
(1.0009050796229 -0.0012784814433668 0)
(1.0011306073617 -0.0014251059382597 0)
(1.0013805380298 -0.0015702170084739 0)
(1.0016546495344 -0.001713657714226 0)
(1.0019526175431 -0.0018551758531418 0)
(1.0022741880548 -0.0019948194843231 0)
(1.0026189491823 -0.0021322962979331 0)
(1.0029866896904 -0.0022678773440629 0)
(1.003376881042 -0.0024009572408349 0)
(1.0037894287897 -0.0025321872466409 0)
(1.0042235519782 -0.0026602365844263 0)
(1.0046794088604 -0.0027867253145209 0)
(1.0051557132972 -0.0029088081933647 0)
(1.0056532228525 -0.0030304284524316 0)
(1.0061696619256 -0.0031453067741762 0)
(1.0067071260997 -0.0032626203997331 0)
(1.0072613061881 -0.0033681685154904 0)
(1.007837162791 -0.0034829642254142 0)
(1.0084261159589 -0.0035748113767491 0)
(1.0090392402645 -0.0036916508173785 0)
(1.0096590385851 -0.0037605932087666 0)
(1.0103096901171 -0.0038907052735449 0)
(1.0000005048284 -0.0001244954388799 0)
(1.0000273492494 -0.00037343541901537 0)
(1.0000790887106 -0.00062216760589596 0)
(1.0001566820695 -0.00087021181994946 0)
(1.0002605453587 -0.0011172777280573 0)
(1.0003906531136 -0.0013633676801053 0)
(1.0005467655978 -0.0016084832891811 0)
(1.0007286543217 -0.0018524645152217 0)
(1.0009361004549 -0.0020948994630419 0)
(1.0011689291048 -0.0023353700578202 0)
(1.0014268793109 -0.0025733730412133 0)
(1.0017097487655 -0.002808676556056 0)
(1.0020171744757 -0.0030408840404115 0)
(1.0023489704754 -0.0032700941975451 0)
(1.0027046475583 -0.0034958296785876 0)
(1.0030841421398 -0.0037185516122405 0)
(1.0034867411142 -0.0039372479126219 0)
(1.0039126594035 -0.0041530058617832 0)
(1.0043606822937 -0.0043635891040776 0)
(1.0048316309145 -0.0045717045969227 0)
(1.005323238197 -0.004772582434003 0)
(1.0058377171243 -0.004972833179114 0)
(1.0063706207912 -0.0051619436583367 0)
(1.0069272642572 -0.0053553078813437 0)
(1.0074985444032 -0.0055291371772483 0)
(1.0080965572549 -0.0057186696462983 0)
(1.0087020923066 -0.0058699393413494 0)
(1.0093421101973 -0.0060633353214794 0)
(1.0099755474503 -0.0061766458859413 0)
(1.0106621856448 -0.0063927858389845 0)
(1.000000514636 -0.00017198777970835 0)
(1.0000285693393 -0.00051613649568236 0)
(1.0000826442948 -0.0008599195264934 0)
(1.000163677963 -0.0012026600028646 0)
(1.000272047493 -0.0015440497816044 0)
(1.0004077163862 -0.0018841700250111 0)
(1.0005704431805 -0.0022230095245294 0)
(1.000760006048 -0.0025602779290257 0)
(1.0009761602687 -0.0028953510599354 0)
(1.0012187256542 -0.0032276545242657 0)
(1.001487397694 -0.0035565331427338 0)
(1.0017820041516 -0.0038817283912064 0)
(1.0021021309972 -0.0042027320186494 0)
(1.0024476900362 -0.0045197264256175 0)
(1.0028180885897 -0.0048320544660893 0)
(1.0032134732778 -0.0051403921158026 0)
(1.0036328792378 -0.0054432963765975 0)
(1.0040769578419 -0.0057423216707233 0)
(1.0045438949023 -0.0060342574482896 0)
(1.0050354421526 -0.0063229716028096 0)
(1.0055479673934 -0.0066016298893277 0)
(1.0060857232839 -0.0068797062015509 0)
(1.006641231166 -0.0071421554271793 0)
(1.0072243177551 -0.0074110517353093 0)
(1.0078191727939 -0.007652329732314 0)
(1.0084479031919 -0.0079165061214213 0)
(1.0090764103218 -0.0081262382881066 0)
(1.0097539765705 -0.008396775779326 0)
(1.0104065065372 -0.0085528655856885 0)
(1.0111438396547 -0.0088568462715788 0)
(1.0000005239282 -0.00021883817872115 0)
(1.0000299499518 -0.00065708420455605 0)
(1.0000866815071 -0.0010946829349605 0)
(1.0001716418848 -0.0015307493383408 0)
(1.0002851754242 -0.0019650524126271 0)
(1.0004272427033 -0.0023978355118007 0)
(1.0005976042456 -0.0028290763685023 0)
(1.000796047444 -0.0032583052654893 0)
(1.0010222966615 -0.0036846476495292 0)
(1.0012761686861 -0.0041073831619254 0)
(1.001557310492 -0.0045257461564481 0)
(1.0018655947099 -0.0049395090216457 0)
(1.002200551757 -0.0053480907335231 0)
(1.0025622242739 -0.005751798298511 0)
(1.0029498996163 -0.0061498012739507 0)
(1.0033639970937 -0.0065430224443132 0)
(1.0038032474858 -0.0069295566425141 0)
(1.0042688590176 -0.0073114649776132 0)
(1.0047582778921 -0.0076844726485462 0)
(1.0052744320576 -0.0080537035345894 0)
(1.0058119895278 -0.0084100760757327 0)
(1.0063777714058 -0.008766182963474 0)
(1.0069605075279 -0.009102056874437 0)
(1.0075756994831 -0.0094470597485295 0)
(1.008199128667 -0.009755945114038 0)
(1.0088654946712 -0.010095896785038 0)
(1.0095219919488 -0.010364085589589 0)
(1.0102459965984 -0.010713814587467 0)
(1.010921825989 -0.01091191281924 0)
(1.0117223591183 -0.011307531934958 0)
(1.0000005310523 -0.00026513003734706 0)
(1.0000314074333 -0.00079656824120332 0)
(1.0000909528943 -0.0013269669533647 0)
(1.0001800672097 -0.001855220563553 0)
(1.0002990583953 -0.0023812772201931 0)
(1.0004478921727 -0.0029056319358311 0)
(1.0006263414141 -0.003428251043856 0)
(1.0008342122314 -0.0039484293610705 0)
(1.0010711988446 -0.0044649991478273 0)
(1.0013371204719 -0.0049771061787766 0)
(1.0016315751914 -0.0054839219455135 0)
(1.0019544979734 -0.0059853154665349 0)
(1.0023053663076 -0.0064806781292702 0)
(1.0026843888946 -0.0069704885152125 0)
(1.0030907272187 -0.0074537517687769 0)
(1.0035251343719 -0.0079316738161215 0)
(1.0039860007708 -0.008401853430267 0)
(1.0044752024315 -0.0088669019645528 0)
(1.0049893353911 -0.0093213799999673 0)
(1.0055327225303 -0.0097717724046826 0)
(1.0060980543497 -0.010206545666938 0)
(1.0066951825217 -0.010641697338573 0)
(1.0073084003771 -0.01105189893977 0)
(1.0079598954636 -0.011474486257462 0)
(1.0086155735444 -0.011852006807849 0)
(1.0093249723621 -0.012269889541514 0)
(1.0100132584296 -0.012597408636456 0)
(1.0107909445453 -0.01302957200414 0)
(1.0114932836485 -0.01326967481581 0)
(1.0123676217842 -0.013762176504064 0)
(1.0000005337568 -0.00031080459635681 0)
(1.000032838292 -0.00093443310802362 0)
(1.0000951617063 -0.0015565199444667 0)
(1.0001883706069 -0.0021757295508181 0)
(1.0003127328954 -0.0027923010651671 0)
(1.0004682280054 -0.0034070778179225 0)
(1.0006546536351 -0.0040200144630026 0)
(1.0008718465412 -0.004630110728521 0)
(1.0011194754059 -0.0052358618047689 0)
(1.0013973701513 -0.0058362953272801 0)
(1.0017050845669 -0.0064305746023458 0)
(1.0020426358941 -0.0070187385128953 0)
(1.0024094583521 -0.0076002028292484 0)
(1.0028059631648 -0.0081756697825889 0)
(1.0032311907852 -0.008743993408327 0)
(1.0036862868069 -0.0093067019637897 0)
(1.004169283072 -0.0098608664155978 0)
(1.0046828233586 -0.010409692456194 0)
(1.0052225752946 -0.010946475090219 0)
(1.0057944451622 -0.011479165617887 0)
(1.0063889304472 -0.011993570842434 0)
(1.0070193037748 -0.012509385139207 0)
(1.0076649014138 -0.01299546901795 0)
(1.0083554441864 -0.013497839139064 0)
(1.0090457566063 -0.013945772432904 0)
(1.0098021003622 -0.014444584357622 0)
(1.010524842796 -0.014833120805494 0)
(1.0113619003673 -0.015351930358893 0)
(1.0120931611887 -0.015634822700932 0)
(1.013050185765 -0.016230578000564 0)
(1.0000005302857 -0.00035567620422712 0)
(1.0000341411512 -0.0010701345999661 0)
(1.0000990151311 -0.0017824411396385 0)
(1.000195975313 -0.0024910246008018 0)
(1.00032524717 -0.0031965352910922 0)
(1.0004868338248 -0.0039002677729161 0)
(1.0006805719751 -0.0046021664201441 0)
(1.0009063421184 -0.0053008757462666 0)
(1.0011637946278 -0.0059945116480889 0)
(1.0014527803207 -0.0066820037340966 0)
(1.0017728179443 -0.0073625687763245 0)
(1.0021240288634 -0.0080364950381339 0)
(1.0025058204943 -0.0087032814979938 0)
(1.0029188433861 -0.0093639101291108 0)
(1.0033620325418 -0.010017103229821 0)
(1.0038369812856 -0.010664751952896 0)
(1.0043413632961 -0.011303373962033 0)
(1.0048786776319 -0.01193681079343 0)
(1.0054436198185 -0.012556998787005 0)
(1.0060438354952 -0.013173453336688 0)
(1.0066674812678 -0.013769126765378 0)
(1.007331563164 -0.014367687583077 0)
(1.0080100771981 -0.014931756320435 0)
(1.0087409506342 -0.015516712794402 0)
(1.0094670005836 -0.016037527040261 0)
(1.0102727156766 -0.016621007910752 0)
(1.011031483311 -0.017073066491655 0)
(1.0119320552772 -0.0176836061495 0)
(1.0126939094973 -0.018010975907076 0)
(1.0137407706342 -0.018717365684735 0)
(1.0000005190832 -0.00039946516143896 0)
(1.0000352194698 -0.0012028393725302 0)
(1.0001022338614 -0.0020033493979073 0)
(1.0002023310297 -0.0027991868433949 0)
(1.0003356929902 -0.0035915382814375 0)
(1.0005023580126 -0.004382255877352 0)
(1.0007022173109 -0.0051712773438505 0)
(1.0009352085018 -0.0059568338124007 0)
(1.0012009727729 -0.0067366234966799 0)
(1.0014993932896 -0.0075095026154844 0)
(1.0018299671288 -0.0082748093825097 0)
(1.00219294253 -0.0090331655797825 0)
(1.0025877225661 -0.0097842188810843 0)
(1.0030152328364 -0.010529289821223 0)
(1.0034743286574 -0.011266995976113 0)
(1.0039671012031 -0.011999631743664 0)
(1.0044908852043 -0.012723146438675 0)
(1.0050501079674 -0.013442053242273 0)
(1.0056384855285 -0.014146853555468 0)
(1.006265522888 -0.014848708814972 0)
(1.0069169598397 -0.015527552282394 0)
(1.0076137658738 -0.01621126916436 0)
(1.0083243582432 -0.016855866464179 0)
(1.0090953569121 -0.017526698286575 0)
(1.0098569482109 -0.0181234918479 0)
(1.0107129395226 -0.018796020723343 0)
(1.0115081870106 -0.019314932779254 0)
(1.0124748207702 -0.020023057615228 0)
(1.0132682061498 -0.02039761183473 0)
(1.0144102655004 -0.021222878251142 0)
(1.0000004987579 -0.00044183097109933 0)
(1.0000359848878 -0.0013315251750151 0)
(1.0001045607 -0.0022175495109861 0)
(1.0002069313771 -0.003097861005252 0)
(1.0003432369304 -0.0039743090537634 0)
(1.0005135622707 -0.0048494103408824 0)
(1.0007178681331 -0.0057231019996093 0)
(1.000956161753 -0.0065931474223021 0)
(1.0012280855453 -0.0074567939851538 0)
(1.0015335669321 -0.0083128531549608 0)
(1.0018720977822 -0.0091608578212777 0)
(1.0022440753408 -0.010001850201239 0)
(1.0026489253873 -0.010835698488128 0)
(1.0030878813824 -0.011664122046704 0)
(1.0035597536631 -0.012485669963931 0)
(1.0040671742938 -0.013303078716926 0)
(1.0046071763988 -0.014111729026264 0)
(1.0051851717712 -0.014916833233881 0)
(1.0057939262531 -0.015707407353598 0)
(1.0064448856692 -0.016496317886635 0)
(1.0071213718412 -0.017260361798665 0)
(1.0078484591699 -0.0180318297655 0)
(1.0085889015878 -0.018759830848848 0)
(1.0093983024549 -0.019520188919933 0)
(1.0101939078339 -0.020196623334033 0)
(1.011099506701 -0.020963108573094 0)
(1.0119305384874 -0.02155302915032 0)
(1.0129641179535 -0.022365253367821 0)
(1.0137892149947 -0.022790817730167 0)
(1.0150299743251 -0.023743905387667 0)
(1.000000468394 -0.00048240404079106 0)
(1.0000363613696 -0.0014550763795169 0)
(1.0001057732857 -0.0024231902266764 0)
(1.0002093393542 -0.0033844735789631 0)
(1.0003471605669 -0.0043415632119282 0)
(1.0005193782892 -0.0052977453842076 0)
(1.0007260353512 -0.006252965073219 0)
(1.0009672192179 -0.0072044683840812 0)
(1.0012425846449 -0.0081490248330792 0)
(1.0015521145304 -0.0090854332895217 0)
(1.0018953135001 -0.01001349881433 0)
(1.002272747656 -0.010934771887223 0)
(1.0026838956905 -0.011849418831657 0)
(1.0031303272203 -0.012759618159832 0)
(1.0036108496386 -0.013663897239794 0)
(1.0041286698118 -0.014565470606844 0)
(1.0046805731117 -0.015459168965993 0)
(1.0052729931439 -0.016350920546264 0)
(1.0058978106921 -0.01722823994986 0)
(1.006568452742 -0.0181057279249 0)
(1.0072658969231 -0.018956991858993 0)
(1.0080193738854 -0.019818844481651 0)
(1.0087860439947 -0.020633335007215 0)
(1.009630583337 -0.021487093097343 0)
(1.0104573147863 -0.022247306432888 0)
(1.0114102301093 -0.023113053916585 0)
(1.0122751483373 -0.023778935673586 0)
(1.0133748189704 -0.024702295975468 0)
(1.0142309958142 -0.025183894491466 0)
(1.0155720036352 -0.026274271349101 0)
(1.0000004276621 -0.00052081443530034 0)
(1.0000362903156 -0.0015723707390538 0)
(1.0001056988412 -0.0026184055876899 0)
(1.0002092136741 -0.0036564259565934 0)
(1.0003468975237 -0.0046899769209624 0)
(1.0005189539176 -0.0057232151508329 0)
(1.0007255188088 -0.0067561033567299 0)
(1.0009667695974 -0.0077853262493009 0)
(1.0012423846432 -0.0088071555008052 0)
(1.0015524115591 -0.0098204125258534 0)
(1.0018963857332 -0.010825255058257 0)
(1.0022750581055 -0.011823828365754 0)
(1.0026879916426 -0.012816679234485 0)
(1.0031371138518 -0.013806503891174 0)
(1.0036212761981 -0.014791866055687 0)
(1.0041442830255 -0.015776489844921 0)
(1.0047027396352 -0.016754696753349 0)
(1.0053041177982 -0.01773313421529 0)
(1.0059395112547 -0.018697841718205 0)
(1.0066243260703 -0.019665146953558 0)
(1.0073373417881 -0.020605494402707 0)
(1.0081119044645 -0.021560245646305 0)
(1.0088998046978 -0.022464383541757 0)
(1.0097746811084 -0.023415477711725 0)
(1.0106282691829 -0.024263972432066 0)
(1.0116245481254 -0.02523452369729 0)
(1.0125201967979 -0.025982060110787 0)
(1.0136832908911 -0.02702394420442 0)
(1.0145690142783 -0.027567849879151 0)
(1.0160097709158 -0.028805290320853 0)
(1.000000376262 -0.00055671290495045 0)
(1.0000357295688 -0.0016823400695425 0)
(1.0001042186518 -0.0028014174007767 0)
(1.0002063163069 -0.0039112426161708 0)
(1.0003420437689 -0.0050163826997958 0)
(1.000511671705 -0.0061219571407937 0)
(1.0007154394157 -0.0072279561763958 0)
(1.0009536215609 -0.0083304647255089 0)
(1.0012259299805 -0.0094252439220665 0)
(1.0015324832045 -0.01051117479927 0)
(1.0018728641017 -0.011588849547203 0)
(1.0022480191725 -0.01266109099544 0)
(1.0026576260666 -0.013728912064196 0)
(1.0031039833064 -0.014795581588748 0)
(1.003586035415 -0.015859769274817 0)
(1.0041081935586 -0.016925734115077 0)
(1.0046669610145 -0.01798735419197 0)
(1.0052708414922 -0.019051983393926 0)
(1.0059102683157 -0.020104261795101 0)
(1.0066025813543 -0.021162193715009 0)
(1.0073245745139 -0.02219318238738 0)
(1.0081135796424 -0.023243058282244 0)
(1.0089163845678 -0.024239918843982 0)
(1.0098152864704 -0.025292164668603 0)
(1.0106900802222 -0.026233667540971 0)
(1.0117240933738 -0.02731460612827 0)
(1.012646001728 -0.028150140671611 0)
(1.0138679773711 -0.029318074576235 0)
(1.0147807033848 -0.029931824437001 0)
(1.0163185680334 -0.031326134434261 0)
(1.0000003143968 -0.00058978807678239 0)
(1.0000346565883 -0.0017840244046161 0)
(1.000101262038 -0.0029706294234084 0)
(1.0002005010954 -0.0041467051875999 0)
(1.0003323505668 -0.0053179420752755 0)
(1.0004971511045 -0.0064905029693021 0)
(1.0006952527025 -0.0076644144904251 0)
(1.0009270306199 -0.0088351293436253 0)
(1.0011922367352 -0.0099978922904949 0)
(1.001491062137 -0.011151681068807 0)
(1.0018231514361 -0.012297603052351 0)
(1.0021896511954 -0.013439235281275 0)
(1.0025903812403 -0.014578144451509 0)
(1.0030280140897 -0.015718221271701 0)
(1.0035016354905 -0.016858322489022 0)
(1.0040162577112 -0.018003258947547 0)
(1.0045683663749 -0.019146558129237 0)
(1.0051674670652 -0.020296248375074 0)
(1.0058034822639 -0.021435701741411 0)
(1.0064955977135 -0.022584498708697 0)
(1.0072188920256 -0.023707232157512 0)
(1.0080144672575 -0.024853997299771 0)
(1.0088246064091 -0.025946405427393 0)
(1.0097397809844 -0.027103295530306 0)
(1.0106287721364 -0.028142589367236 0)
(1.0116932242459 -0.029339311437416 0)
(1.0126355672324 -0.030269710951804 0)
(1.0139099696782 -0.031571100475444 0)
(1.0148460381296 -0.032263519638424 0)
(1.016476166445 -0.033824177652624 0)
(1.0000002430441 -0.00061978350085742 0)
(1.0000330646782 -0.0018766262624956 0)
(1.0000968063537 -0.0031247142763672 0)
(1.0001917206035 -0.0043609681036675 0)
(1.0003177348206 -0.005592288571653 0)
(1.0004752599621 -0.0068259489920996 0)
(1.000664760419 -0.008062019946191 0)
(1.0008867109778 -0.0092952954737567 0)
(1.0011409070519 -0.010520504391619 0)
(1.0014276091988 -0.011736756580851 0)
(1.0017465335693 -0.012945751918701 0)
(1.0020990231838 -0.014151889402613 0)
(1.0024850628783 -0.015357377002266 0)
(1.0029076909259 -0.016566768869983 0)
(1.0033661790717 -0.017779200635673 0)
(1.0038661184511 -0.019000041169732 0)
(1.0044040640609 -0.020222588769375 0)
(1.0049904679756 -0.021455490676139 0)
(1.0056149090693 -0.022681044457294 0)
(1.0062982881503 -0.023920246553006 0)
(1.0070142877233 -0.025135235667399 0)
(1.0078074846165 -0.026380021804703 0)
(1.0086162662871 -0.027570381860647 0)
(1.0095386283404 -0.028834870084601 0)
(1.0104335178989 -0.029976605408007 0)
(1.0115194941323 -0.031294047823447 0)
(1.0124750715292 -0.03232652607641 0)
(1.013793423207 -0.033768267376959 0)
(1.014748051063 -0.034549451809982 0)
(1.0164634705984 -0.036285432541018 0)
(1.0000001628418 -0.00064650806634332 0)
(1.0000309647339 -0.0019595409474009 0)
(1.0000908784097 -0.0032626636275881 0)
(1.0001800234294 -0.0045526287163466 0)
(1.0002982732173 -0.0058376187376534 0)
(1.0004461056942 -0.0071260697684114 0)
(1.0006240989993 -0.0084181016624707 0)
(1.0008328219692 -0.0097078288653864 0)
(1.0010721131646 -0.010989469943956 0)
(1.0013422944712 -0.012262299412031 0)
(1.0016431589652 -0.013528681559323 0)
(1.0019762342752 -0.014793894080122 0)
(1.0023416863125 -0.01606087131466 0)
(1.0027428979952 -0.017334862354019 0)
(1.0031793668905 -0.018615383129884 0)
(1.0036572222195 -0.019908353050046 0)
(1.0041731762699 -0.021206992568066 0)
(1.0047385429874 -0.022520482360093 0)
(1.0053427416588 -0.023830309658415 0)
(1.0060082074914 -0.025158650510004 0)
(1.0067075962143 -0.026465696346286 0)
(1.007488573582 -0.027808837924879 0)
(1.0082863561534 -0.029098978907956 0)
(1.0092056424251 -0.030473262349995 0)
(1.0100969757272 -0.031721778083041 0)
(1.0111940478471 -0.033164146790776 0)
(1.0121544639588 -0.03430611278257 0)
(1.0135059641896 -0.035894044644164 0)
(1.0144744196906 -0.036776778207007 0)
(1.0162635013644 -0.038693203156042 0)
(1.0000000753693 -0.00066984063466467 0)
(1.000028382408 -0.002032372108069 0)
(1.000083549268 -0.0033838141910137 0)
(1.0001655473619 -0.0047207642728878 0)
(1.0002741892834 -0.0060527406521153 0)
(1.0004100144841 -0.0073893788605762 0)
(1.0005737105434 -0.0087308508470612 0)
(1.0007659303308 -0.010070575912457 0)
(1.0009865514153 -0.011402272195059 0)
(1.001235943875 -0.012725407165047 0)
(1.0015139778711 -0.014043073437801 0)
(1.0018223452105 -0.015361471751162 0)
(1.0021614022918 -0.016684342709411 0)
(1.0025348416104 -0.018017650596461 0)
(1.0029424208061 -0.019361399812019 0)
(1.0033907440593 -0.020722037466112 0)
(1.003876773605 -0.022092887064481 0)
(1.0044125585077 -0.023483541522611 0)
(1.0049875763975 -0.024875020443316 0)
(1.0056255282851 -0.026290345951531 0)
(1.0062985149419 -0.027688452825406 0)
(1.0070567236066 -0.029129335136213 0)
(1.0078331541051 -0.030520385708917 0)
(1.0087380541879 -0.032005666356136 0)
(1.0096154147678 -0.033364866731453 0)
(1.0107117443822 -0.034935284306798 0)
(1.0116673775228 -0.036194308384808 0)
(1.0130398042141 -0.037932940997022 0)
(1.0140149305836 -0.038930169277643 0)
(1.0158648581466 -0.041032017097098 0)
(0.99999998171025 -0.0006897305358666 0)
(1.0000253579306 -0.0020949343647825 0)
(1.0000749299593 -0.003487853604734 0)
(1.0001485063268 -0.0048649409155388 0)
(1.0002458329701 -0.0062370862817671 0)
(1.0003675018551 -0.0076151457907757 0)
(1.0005143013075 -0.0089993434214893 0)
(1.0006869549227 -0.010382393247218 0)
(1.0008853716308 -0.011757525493218 0)
(1.0011099527341 -0.013124424519951 0)
(1.0013606409583 -0.014486964979002 0)
(1.0016392637868 -0.015852303080968 0)
(1.0019463700149 -0.017225055863726 0)
(1.0022859117864 -0.018611913479379 0)
(1.0026579370073 -0.020013475257969 0)
(1.0030694329389 -0.021436683509989 0)
(1.0035177190178 -0.02287516095588 0)
(1.0040153871546 -0.02433877072542 0)
(1.0045522667974 -0.025808462845431 0)
(1.0051528870408 -0.027307696543486 0)
(1.0057895049354 -0.028795006231865 0)
(1.0065138359961 -0.030331948102619 0)
(1.0072582369252 -0.031824257685658 0)
(1.008136369839 -0.033420470487385 0)
(1.0089889387162 -0.034893767497785 0)
(1.0100709126232 -0.036593877037615 0)
(1.0110115606599 -0.037977352106869 0)
(1.0123912000971 -0.039870986936136 0)
(1.0133617616007 -0.040991092002306 0)
(1.0152610847492 -0.043286224754589 0)
(0.9999998840417 -0.00070619343527359 0)
(1.0000219405296 -0.0021472434336031 0)
(1.0000651601521 -0.0035748060012885 0)
(1.0001291750597 -0.004985196490008 0)
(1.000213656026 -0.0063906927635755 0)
(1.00031923599 -0.0078033767721574 0)
(1.000446791876 -0.0092235223371494 0)
(1.0005971019032 -0.010643133884644 0)
(1.0007700957558 -0.012054966896521 0)
(1.0009661855405 -0.013458940937923 0)
(1.0011853768229 -0.014859752355213 0)
(1.0014295987614 -0.016265536080484 0)
(1.0016995873124 -0.017681841241826 0)
(1.0019994934114 -0.019116093671952 0)
(1.002329677051 -0.020569576524183 0)
(1.0026973941406 -0.022049706079676 0)
(1.0031004302551 -0.023550574786452 0)
(1.0035516783928 -0.025082207553777 0)
(1.0040416596805 -0.026625846768378 0)
(1.0045951630124 -0.028205032154723 0)
(1.0051855084108 -0.029778729686829 0)
(1.0058645339174 -0.031409017859898 0)
(1.0065662470703 -0.033001943858876 0)
(1.0074041783516 -0.034707795731197 0)
(1.0082215503966 -0.036297753637436 0)
(1.0092726608897 -0.038127518052897 0)
(1.0101908397762 -0.039643159027761 0)
(1.011555356739 -0.041691560680796 0)
(1.0125220496885 -0.042948544939454 0)
(1.01443742812 -0.045438013659415 0)
(0.99999978351886 -0.00071930147185746 0)
(1.0000181827134 -0.0021894883790612 0)
(1.0000543927441 -0.0036449921219878 0)
(1.0001078600458 -0.0050819913167098 0)
(1.0001781724452 -0.0065141454255528 0)
(1.0002659850604 -0.0079547532764367 0)
(1.000372246807 -0.0094041349861254 0)
(1.0004977750366 -0.010853586394129 0)
(1.0006425099442 -0.012295402138257 0)
(1.0008068522731 -0.013729748793942 0)
(1.0009908534649 -0.015162166233682 0)
(1.0011965033469 -0.016601779978985 0)
(1.0014247082308 -0.018055105602339 0)
(1.001679756464 -0.019530319196612 0)
(1.0019623212076 -0.02102944634634 0)
(1.0022798230548 -0.022560390607497 0)
(1.0026305692431 -0.024117821299564 0)
(1.0030275643988 -0.025711914208703 0)
(1.0034622265113 -0.027324416447185 0)
(1.0039592102896 -0.028978827838921 0)
(1.0044934746702 -0.030635023732641 0)
(1.0051160460354 -0.032355110925728 0)
(1.0057640948832 -0.034046649224595 0)
(1.0065486754203 -0.035860047803592 0)
(1.0073192769815 -0.037567586549023 0)
(1.0083238828692 -0.039526290596686 0)
(1.0092086891632 -0.041179705806907 0)
(1.0105384925544 -0.043382029139943 0)
(1.0114968377913 -0.04479402955682 0)
(1.013401601121 -0.047469750946405 0)
(0.99999968102724 -0.00072917294830201 0)
(1.0000141277499 -0.0022219923950538 0)
(1.0000427672339 -0.0036989562127265 0)
(1.0000848653542 -0.0051561018558692 0)
(1.000139911533 -0.0066084424754972 0)
(1.0002085526545 -0.008070474574836 0)
(1.0002917921609 -0.0095425617992001 0)
(1.0003904703052 -0.011015292860423 0)
(1.0005045322717 -0.012480514048927 0)
(1.0006343448286 -0.013938642201 0)
(1.0007799897517 -0.0153960714073 0)
(1.0009434658523 -0.016862915136371 0)
(1.001125825934 -0.018346673807818 0)
(1.0013314233392 -0.019856276850034 0)
(1.0015612280127 -0.02139452319436 0)
(1.0018227274722 -0.022969829561023 0)
(1.0021147511245 -0.024577489697641 0)
(1.0024502985547 -0.026227915308048 0)
(1.0028217211291 -0.027903392569119 0)
(1.0032534028348 -0.029627576538421 0)
(1.0037220324578 -0.031361187159054 0)
(1.0042776226975 -0.033166760940184 0)
(1.0048607699192 -0.034953141564425 0)
(1.0055796070608 -0.036871465588981 0)
(1.0062907571214 -0.038695040575952 0)
(1.0072344500043 -0.040781970815628 0)
(1.0080722125923 -0.042575463251818 0)
(1.0093501473587 -0.044931301341373 0)
(1.0102870286192 -0.046509025795864 0)
(1.0121631036321 -0.049365752105821 0)
(0.99999957576466 -0.00073598477671227 0)
(1.000009831672 -0.0022452315133172 0)
(1.000030439041 -0.0037374433500338 0)
(1.0000605122844 -0.0052085109339314 0)
(1.0000994214887 -0.0066747807328943 0)
(1.0001477589405 -0.0081519391717768 0)
(1.0002065744088 -0.0096404067359177 0)
(1.0002767187208 -0.011130065974433 0)
(1.0003581423935 -0.012612308791328 0)
(1.0004511407218 -0.014087776159998 0)
(1.0005558221314 -0.015563722149651 0)
(1.0006741171009 -0.017051225641819 0)
(1.0008072349186 -0.018558803175296 0)
(1.0009594723658 -0.020096105985455 0)
(1.0011321428197 -0.0216667609782 0)
(1.0013325934626 -0.023279659358056 0)
(1.0015602903729 -0.024930801625037 0)
(1.0018279202811 -0.026630844559848 0)
(1.0021290113964 -0.02836264586377 0)
(1.002487266046 -0.030150246451424 0)
(1.0028814622009 -0.031954853294412 0)
(1.003360119657 -0.03384046980221 0)
(1.0038675670434 -0.035715535838925 0)
(1.0045087794292 -0.037735329577133 0)
(1.0051474432019 -0.039669044027368 0)
(1.0060168295054 -0.041884704683399 0)
(1.0067928052446 -0.043812924783345 0)
(1.0080037975609 -0.046326615613294 0)
(1.0089026335345 -0.048067303464951 0)
(1.0107327471577 -0.051099909101846 0)
(0.99999946907223 -0.00074003085240585 0)
(1.0000054417283 -0.0022600536598249 0)
(1.0000177611739 -0.0037617660050878 0)
(1.0000353912921 -0.0052408562126532 0)
(1.0000575284919 -0.0067149988890557 0)
(1.0000846667468 -0.0082010864029999 0)
(1.0001179290602 -0.0096996812719228 0)
(1.0001582060801 -0.011200037888007 0)
(1.0002054842566 -0.012693083370341 0)
(1.000259915304 -0.014179594444792 0)
(1.0003216270175 -0.015667653208107 0)
(1.0003923533656 -0.017169250807472 0)
(1.0004735272294 -0.018693974503153 0)
(1.0005691713872 -0.02025211463953 0)
(1.0006811564583 -0.021848259163587 0)
(1.000816235198 -0.023491615675383 0)
(1.0009750386338 -0.025179211498139 0)
(1.0011690027768 -0.026921662586314 0)
(1.001394057951 -0.028702925282137 0)
(1.0016713100879 -0.030546954666672 0)
(1.0019842167811 -0.032415928727986 0)
(1.0023759880178 -0.034375254761591 0)
(1.0027997295031 -0.036332032980732 0)
(1.0033501570008 -0.038449155284449 0)
(1.0039069361683 -0.040483501023515 0)
(1.0046852154841 -0.04283173542279 0)
(1.0053895999861 -0.044876411605122 0)
(1.0065154434193 -0.047575234399296 0)
(1.0073711340419 -0.049435208220134 0)
(1.0091253254032 -0.052703243531592 0)
(0.99999935006666 -0.00074183626669413 0)
(1.0000011293615 -0.0022680713257999 0)
(1.0000052277595 -0.0037745550144264 0)
(1.0000103525143 -0.0052567849726794 0)
(1.0000154088306 -0.006733708618255 0)
(1.0000207695743 -0.0082232709865641 0)
(1.0000275908829 -0.0097262525903859 0)
(1.0000368717326 -0.011231476818579 0)
(1.0000488174641 -0.012729552349837 0)
(1.0000634106436 -0.014221416116634 0)
(1.0000807415855 -0.015715930427385 0)
(1.0001021782636 -0.017225939169163 0)
(1.0001294350106 -0.018762187783106 0)
(1.0001660191441 -0.020335517556783 0)
(1.0002146145653 -0.02195167532623 0)
(1.0002807748118 -0.023619926980791 0)
(1.0003670765168 -0.025338944707537 0)
(1.0004822696624 -0.027118714022975 0)
(1.0006269314107 -0.028945797540983 0)
(1.0008159344507 -0.030842448715859 0)
(1.0010432221317 -0.03277483869441 0)
(1.0013373829945 -0.034806167136457 0)
(1.0016747489214 -0.036847126305543 0)
(1.0021169460597 -0.039063530326878 0)
(1.0025938431521 -0.041201735065788 0)
(1.0032498098534 -0.043697069283115 0)
(1.0038909006353 -0.045846982207038 0)
(1.0048783326782 -0.048810124671631 0)
(1.0057266881219 -0.050696210397064 0)
(1.0073467066342 -0.054538586550563 0)
(0.9999991733204 -0.0007427540104228 0)
(0.99999635402982 -0.0022735246526267 0)
(0.99999224125061 -0.0037839062064741 0)
(0.99998491483799 -0.0052691591890961 0)
(0.99997296531921 -0.0067493136389663 0)
(0.99995641294157 -0.0082433157464103 0)
(0.99993630626651 -0.0097520564146799 0)
(0.99991384649668 -0.011263383724814 0)
(0.99988947841676 -0.012767247473873 0)
(0.99986317191585 -0.014265105331671 0)
(0.99983499433681 -0.015766906794804 0)
(0.99980583547366 -0.017286707247586 0)
(0.99977758295215 -0.018836792095587 0)
(0.99975321257473 -0.020428717928184 0)
(0.9997361629263 -0.022069693545477 0)
(0.99973066224877 -0.023768900737762 0)
(0.99974117355783 -0.025527405032974 0)
(0.99977335953193 -0.027353706893429 0)
(0.99983290621325 -0.029239173519258 0)