/*--------------------------------*- C++ -*----------------------------------*\
| =========                 |                                                 |
| \\      /  F ield         | OpenFOAM: The Open Source CFD Toolbox           |
|  \\    /   O peration     | Version:  2112                                  |
|   \\  /    A nd           | Website:  www.openfoam.com                      |
|    \\/     M anipulation  |                                                 |
\*---------------------------------------------------------------------------*/
FoamFile
{
    version     2.0;
    format      ascii;
    arch        "LSB;label=32;scalar=64";
    class       volVectorField;
    location    "20.1";
    object      U;
}
// * * * * * * * * * * * * * * * * * * * * * * * * * * * * * * * * * * * * * //

dimensions      [0 1 -1 0 0 0 0];

internalField   nonuniform List<vector> 
22000
(
(1.0000010046203 -2.5209797934878e-05 0)
(1.0000260305229 -7.5616524081928e-05 0)
(1.0000742369193 -0.0001261119659677 0)
(1.000146846431 -0.00017662243801909 0)
(1.0002443434247 -0.00022704340634805 0)
(1.0003667002224 -0.00027728921292861 0)
(1.0005136593142 -0.00032727091689932 0)
(1.000684920842 -0.00037689986815646 0)
(1.0008802148858 -0.00042607542682296 0)
(1.0010993060612 -0.00047471976008406 0)
(1.0013419409081 -0.00052274625429797 0)
(1.0016078456108 -0.00057012401475583 0)
(1.0018966906298 -0.00061678278184447 0)
(1.0022081486637 -0.00066274047135863 0)
(1.0025418314695 -0.00070788071150849 0)
(1.0028973888235 -0.00075226279597508 0)
(1.0032743526089 -0.00079564074209457 0)
(1.0036723431047 -0.00083819785220974 0)
(1.0040907580569 -0.00087945499891359 0)
(1.0045292205191 -0.00091994359384238 0)
(1.0049869420985 -0.00095869280467217 0)
(1.0054636550603 -0.00099703221945621 0)
(1.0059582846009 -0.0010328419612524 0)
(1.0064708668271 -0.0010692252653731 0)
(1.0069998040175 -0.0011014016833734 0)
(1.0075457827709 -0.0011364834344636 0)
(1.0081061938268 -0.0011636325308485 0)
(1.0086830521572 -0.0011990774709599 0)
(1.0092718180981 -0.001218234135735 0)
(1.0098772594868 -0.0012580208472234 0)
(1.0000004655784 -7.4283804596286e-05 0)
(1.0000256117854 -0.00022304372043865 0)
(1.0000743894016 -0.00037225715975091 0)
(1.0001479388462 -0.00052163311108748 0)
(1.0002467662916 -0.00067080204288417 0)
(1.0003708988909 -0.00081948530541222 0)
(1.0005201148708 -0.0009674199091416 0)
(1.0006941339172 -0.001114349147797 0)
(1.0008926832501 -0.0012599773716362 0)
(1.0011155340548 -0.0014040714295599 0)
(1.0013624206843 -0.0015463737210678 0)
(1.0016330899175 -0.0016867903159531 0)
(1.0019271911648 -0.001825114775919 0)
(1.0022444409522 -0.0019613932692221 0)
(1.0025843965236 -0.0020952817176926 0)
(1.0029467912125 -0.0022269396707399 0)
(1.0033310273237 -0.0023556469016018 0)
(1.0037369021026 -0.0024819194242601 0)
(1.0041635320167 -0.0026043705289093 0)
(1.0046109339338 -0.0027245196819438 0)
(1.005077715896 -0.0028395762882867 0)
(1.0055644812712 -0.0029533491494509 0)
(1.0060688526225 -0.003059763816532 0)
(1.006592769925 -0.0031676955772728 0)
(1.0071318229472 -0.0032634763695834 0)
(1.0076908159394 -0.0033674065361398 0)
(1.0082611144501 -0.0034485740679473 0)
(1.008853567984 -0.0035532141870922 0)
(1.0094508128503 -0.003611386702272 0)
(1.0100766504432 -0.0037280245643621 0)
(1.0000004897881 -0.00012164743111563 0)
(1.0000268167779 -0.00036561913134753 0)
(1.0000778145423 -0.00061057899355334 0)
(1.0001545824993 -0.00085592536504248 0)
(1.0002575667682 -0.0011009489474637 0)
(1.0003867537284 -0.0013451643716154 0)
(1.0005419006226 -0.0015881628636402 0)
(1.0007227320684 -0.0018295536094815 0)
(1.0009289712625 -0.0020688664869401 0)
(1.0011604030252 -0.0023057245416257 0)
(1.0014167457154 -0.0025397078082123 0)
(1.0016977763839 -0.0027706699535998 0)
(1.0020031127396 -0.0029982704480388 0)
(1.0023325364467 -0.0032225818631932 0)
(1.0026855210923 -0.0034430151385261 0)
(1.0030619256763 -0.0036598245659287 0)
(1.0034609498623 -0.0038717950456615 0)
(1.0038826653659 -0.0040797932731541 0)
(1.0043257423523 -0.0042815004064914 0)
(1.0047908271828 -0.0044794788781268 0)
(1.0052755491336 -0.0046690551181045 0)
(1.0057819421527 -0.0048566361695057 0)
(1.0063054563 -0.0050320214633414 0)
(1.0068512423667 -0.0052101279853192 0)
(1.0074100576457 -0.0053679711783356 0)
(1.0079938507559 -0.0055396847309071 0)
(1.0085833024434 -0.0056732525040704 0)
(1.0092050773235 -0.0058464845937406 0)
(1.0098183014561 -0.0059416256412297 0)
(1.0104821235197 -0.0061354117759972 0)
(1.0000005007475 -0.00016843884164491 0)
(1.0000281911298 -0.00050665201560838 0)
(1.0000818851785 -0.00084638147303728 0)
(1.0001627252783 -0.0011866330449706 0)
(1.0002711200303 -0.0015263074618945 0)
(1.0004069947105 -0.0018647318142432 0)
(1.000570055983 -0.0022014103655938 0)
(1.0007600193917 -0.0025358743283871 0)
(1.0009765980261 -0.002867512338719 0)
(1.0012195984681 -0.0031958257122978 0)
(1.0014887217967 -0.0035202493320799 0)
(1.0017837917858 -0.0038406060227472 0)
(1.002104385892 -0.0041564254290609 0)
(1.0024503804212 -0.0044678078246214 0)
(1.0028211359999 -0.0047738903564928 0)
(1.0032166917098 -0.0050750196309208 0)
(1.0036359678941 -0.0053694476473818 0)
(1.0040794261066 -0.0056584300964851 0)
(1.0045451152445 -0.0059386634151563 0)
(1.0050345723557 -0.0062138568062497 0)
(1.0055440557582 -0.0064773241740128 0)
(1.0060776201925 -0.0067382919931387 0)
(1.006627659177 -0.0069821046748393 0)
(1.0072038612241 -0.0072302137841139 0)
(1.007790167595 -0.0074495327667631 0)
(1.0084086333725 -0.0076891773287645 0)
(1.0090248530941 -0.0078741983591839 0)
(1.0096878905661 -0.0081166940080774 0)
(1.0103236570026 -0.0082468483300311 0)
(1.0110413893867 -0.0085195910906744 0)
(1.0000005117816 -0.00021491235144516 0)
(1.0000297755476 -0.00064702812108833 0)
(1.0000865980573 -0.0010812465615412 0)
(1.0001721821865 -0.0015160507409035 0)
(1.0002869024019 -0.001949874535111 0)
(1.0004306181348 -0.0023818768910054 0)
(1.0006029777953 -0.0028115476235611 0)
(1.0008036879417 -0.0032384089769825 0)
(1.0010324523436 -0.0036617478299628 0)
(1.0012891106449 -0.0040809690684086 0)
(1.0015733500079 -0.0044953820476582 0)
(1.0018850617306 -0.0049048049528776 0)
(1.002223782019 -0.0053086430692818 0)
(1.0025895159055 -0.005707027297965 0)
(1.0029814919141 -0.0060987853679616 0)
(1.0033999864633 -0.0064843540807072 0)
(1.0038435786722 -0.006861402287636 0)
(1.004313233399 -0.0072316226401593 0)
(1.0048062267062 -0.0075906540938853 0)
(1.0053252338984 -0.0079434859779117 0)
(1.0058647910528 -0.0082812449466637 0)
(1.0064315257997 -0.0086162681313435 0)
(1.0070139708099 -0.008929006664338 0)
(1.0076275840561 -0.009248102587834 0)
(1.0082476711951 -0.0095293219556715 0)
(1.0089091346428 -0.009838298650299 0)
(1.0095584159238 -0.010074719049931 0)
(1.0102730532699 -0.010388605277697 0)
(1.0109367277561 -0.010552447647778 0)
(1.0117223649778 -0.010907924793952 0)
(1.000000520978 -0.00026118374006708 0)
(1.000031480086 -0.00078715321857916 0)
(1.0000916876108 -0.0013159105830365 0)
(1.0001824135956 -0.0018452679051907 0)
(1.0003039937045 -0.0023730981901403 0)
(1.0004562156969 -0.0028984089062809 0)
(1.0006386676776 -0.003420755725119 0)
(1.000851054313 -0.0039397302852491 0)
(1.0010930773301 -0.004454563261135 0)
(1.0013646247877 -0.0049645924243798 0)
(1.0016653784392 -0.0054690245966028 0)
(1.0019953214549 -0.0059677037130317 0)
(1.0023539551994 -0.0064599179200313 0)
(1.0027414509236 -0.0069458328112016 0)
(1.0031568962699 -0.0074239273032749 0)
(1.0036008632291 -0.0078947265788608 0)
(1.0040715432757 -0.0083552600283284 0)
(1.0045705134115 -0.008807712348319 0)
(1.0050941512208 -0.0092465822399066 0)
(1.0056465002162 -0.0096782921926938 0)
(1.0062200701488 -0.010091580317973 0)
(1.0068245653945 -0.010502230677452 0)
(1.0074439444612 -0.010885292474858 0)
(1.0081005535644 -0.011277361241609 0)
(1.0087594246352 -0.011621835037134 0)
(1.0094707921561 -0.012002663165118 0)
(1.0101582647991 -0.012291312119859 0)
(1.010933367829 -0.012680000226463 0)
(1.0116293799604 -0.012876872386782 0)
(1.0124953058842 -0.013320435215507 0)
(1.0000005262127 -0.00030721340458635 0)
(1.0000331985101 -0.00092694040684033 0)
(1.0000968473472 -0.0015502560770738 0)
(1.0001928140798 -0.0021741457230481 0)
(1.0003213904843 -0.0027958225317601 0)
(1.0004822882431 -0.0034141617755889 0)
(1.0006750360718 -0.0040288729969965 0)
(1.0008993470764 -0.0046397036232145 0)
(1.0011549324176 -0.0052458799121044 0)
(1.0014417470783 -0.0058467068587472 0)
(1.0017594808261 -0.0064413167600554 0)
(1.0021082360207 -0.0070296146522132 0)
(1.0024874925682 -0.0076107825277074 0)
(1.0028976279579 -0.0081850270307922 0)
(1.0033375907128 -0.0087504391646019 0)
(1.0038083070226 -0.0093076318618309 0)
(1.0043075511798 -0.0098529382659927 0)
(1.0048376155823 -0.010389094786187 0)
(1.0053938824553 -0.010909375024525 0)
(1.0059819733862 -0.011421798196367 0)
(1.0065921196085 -0.011912501063551 0)
(1.0072375542301 -0.01240107408792 0)
(1.0078970486276 -0.012856617838394 0)
(1.0086008313918 -0.013324501985759 0)
(1.0093022321923 -0.013734431627783 0)
(1.0100690220789 -0.014190620264186 0)
(1.0107987377409 -0.01453319334553 0)
(1.0116417868377 -0.015001230513608 0)
(1.0123738294467 -0.015231224136516 0)
(1.0133309799578 -0.015769578371374 0)
(1.0000005256087 -0.00035282334618686 0)
(1.0000348262454 -0.0010658734814739 0)
(1.0001017739062 -0.0017834389731105 0)
(1.0002027824402 -0.0025015208749093 0)
(1.0003380956825 -0.0032165739945771 0)
(1.0005073470483 -0.003927365109884 0)
(1.00071000968 -0.0046338527119605 0)
(1.0009458175901 -0.0053360332977542 0)
(1.001214505899 -0.0060331865553341 0)
(1.0015161171897 -0.0067246242283174 0)
(1.0018503671114 -0.0074094377408857 0)
(1.0022175068849 -0.0080876334866466 0)
(1.0026170150444 -0.0087583032340771 0)
(1.0030495170514 -0.0094217038281374 0)
(1.0035138346294 -0.010075502731487 0)
(1.0040113062546 -0.01072040165403 0)
(1.0045392771748 -0.011351984975907 0)
(1.0051008516252 -0.01197360288139 0)
(1.0056903505663 -0.012577223952217 0)
(1.0063151610875 -0.01317263072641 0)
(1.0069630416741 -0.013743147456279 0)
(1.007651147038 -0.014312536206984 0)
(1.0083525630894 -0.014843391650271 0)
(1.0091062579646 -0.015390697866717 0)
(1.0098526621011 -0.015869097317118 0)
(1.0106789760239 -0.016405084401614 0)
(1.0114539212794 -0.016804186471257 0)
(1.0123709860248 -0.017357220015166 0)
(1.0131420644447 -0.0176213442879 0)
(1.0141998789861 -0.018262515460941 0)
(1.0000005177548 -0.00039773155869998 0)
(1.0000362629737 -0.0012031119055866 0)
(1.0001061741558 -0.0020140665260817 0)
(1.0002117367098 -0.0028254583106724 0)
(1.0003531435253 -0.0036328890224921 0)
(1.0005299500193 -0.0044350449932391 0)
(1.0007415800313 -0.0052322338366831 0)
(1.0009878022885 -0.006024799343684 0)
(1.0012683925072 -0.0068121378187487 0)
(1.0015835026582 -0.0075936121113508 0)
(1.0019328956558 -0.0083683122499194 0)
(1.0023170024445 -0.0091363907456451 0)
(1.0027353261354 -0.0098968710656659 0)
(1.0031887822584 -0.010650072623048 0)
(1.0036760881275 -0.0113932104561 0)
(1.0041990505047 -0.012127078168345 0)
(1.0047545919231 -0.012846468110637 0)
(1.0053467159264 -0.013555406482126 0)
(1.0059686496804 -0.014244489517811 0)
(1.006629706885 -0.01492542515958 0)
(1.0073150421364 -0.015578530386497 0)
(1.0080460594296 -0.016232091660794 0)
(1.0087897861516 -0.016841661128275 0)
(1.009594631349 -0.017472655925087 0)
(1.0103871937156 -0.018023308305425 0)
(1.0112756429358 -0.018644386271442 0)
(1.012097698528 -0.019103570470901 0)
(1.0130933433853 -0.019748291555154 0)
(1.0139057679812 -0.020048636694206 0)
(1.0150720712931 -0.020801882620306 0)
(1.000000501142 -0.00044158591653584 0)
(1.0000374152636 -0.0013375929416762 0)
(1.0001097744699 -0.0022403676175581 0)
(1.0002191326959 -0.0031434887261998 0)
(1.0003656308375 -0.0040416169316628 0)
(1.0005487485225 -0.0049333897629794 0)
(1.0007678682726 -0.0058195667537207 0)
(1.0010228075356 -0.0067009398764401 0)
(1.0013134002069 -0.0075770895297551 0)
(1.0016399292789 -0.0084474782041516 0)
(1.002002228723 -0.0093112397580304 0)
(1.0024009397849 -0.010168721526201 0)
(1.0028356206287 -0.011018907493347 0)
(1.0033075174121 -0.011862195516562 0)
(1.0038152743392 -0.012695329129483 0)
(1.004361218262 -0.013519199252885 0)
(1.0049418730266 -0.014327777012128 0)
(1.0055622173743 -0.015125824657533 0)
(1.0062143864663 -0.015902519214809 0)
(1.0069097512904 -0.016671643959054 0)
(1.0076307996664 -0.017410345898468 0)
(1.0084034372192 -0.018151757808422 0)
(1.0091883995525 -0.018843906292244 0)
(1.0100440653462 -0.019563395797212 0)
(1.0108825569545 -0.020190793276836 0)
(1.0118341611882 -0.020903011013705 0)
(1.0127040320732 -0.021426794265167 0)
(1.0137811870129 -0.022170849022827 0)
(1.0146365269642 -0.022510724671542 0)
(1.0159173789874 -0.023386413125579 0)
(1.0000004749819 -0.00048399592119104 0)
(1.0000382000778 -0.0014681275947838 0)
(1.0001123294548 -0.0024603522518759 0)
(1.0002244824687 -0.0034528303647009 0)
(1.0003747488015 -0.0044392021594571 0)
(1.0005625359631 -0.0054180906664041 0)
(1.0007871933881 -0.006390810269073 0)
(1.0010486000068 -0.0073587021922656 0)
(1.0013466652082 -0.0083216013044517 0)
(1.0016818231978 -0.0092791213956814 0)
(1.0020540036852 -0.010230490603502 0)
(1.0024640865774 -0.011176302705895 0)
(1.0029117181349 -0.012115538247602 0)
(1.0033985118591 -0.013048692607264 0)
(1.0039230772545 -0.013972031044652 0)
(1.004488306337 -0.014886549313118 0)
(1.0050903648448 -0.015785386835357 0)
(1.0057352678092 -0.016674097064109 0)
(1.0064140948773 -0.017540419649537 0)
(1.0071403697356 -0.018400342599543 0)
(1.0078939217884 -0.019227729673673 0)
(1.0087053288633 -0.020060830195212 0)
(1.0095289498894 -0.020839754297386 0)
(1.0104334721669 -0.021652934795904 0)
(1.0113162154164 -0.022362192762238 0)
(1.012330305016 -0.023172224647383 0)
(1.0132474361348 -0.023766078500193 0)
(1.014407253543 -0.024617940437428 0)
(1.0153062485193 -0.025001982095409 0)
(1.0167057455581 -0.026011410063066 0)
(1.0000004382921 -0.00052456226604986 0)
(1.0000385489556 -0.0015934899729219 0)
(1.0001136354678 -0.0026719613703131 0)
(1.0002273793111 -0.003750597900879 0)
(1.0003798218761 -0.0048219499546335 0)
(1.0005703020945 -0.0058846623174396 0)
(1.0007981436872 -0.0069407049308245 0)
(1.0010632977704 -0.0079920668207366 0)
(1.00136576524 -0.0090389087154517 0)
(1.0017061487783 -0.010081048961785 0)
(1.0020844975143 -0.011117864756741 0)
(1.0025019539676 -0.0121502495099 0)
(1.0029582859478 -0.013177223597199 0)
(1.0034555049111 -0.01419940154737 0)
(1.0039922291628 -0.015212578076294 0)
(1.0045719517359 -0.016217862739906 0)
(1.0051905356634 -0.017207575970327 0)
(1.0058550753369 -0.018188109215479 0)
(1.0065556655347 -0.01914578408785 0)
(1.0073080370655 -0.020098891337467 0)
(1.0080894443394 -0.021017968561321 0)
(1.0089352122367 -0.021946570737296 0)
(1.0097934000244 -0.022816644738497 0)
(1.0107431332086 -0.023728906535766 0)
(1.0116669390268 -0.024525646224336 0)
(1.0127410554232 -0.025440597168551 0)
(1.013703544075 -0.026110919396476 0)
(1.0149452813167 -0.027079726724492 0)
(1.0158877655281 -0.027514042079431 0)
(1.0174078773393 -0.028669251346161 0)
(1.0000003915336 -0.00056290335001926 0)
(1.0000384126075 -0.0017125003904627 0)
(1.0001135415036 -0.0028732035093119 0)
(1.0002275201616 -0.0040339894544176 0)
(1.000380342309 -0.0051862619451206 0)
(1.0005712796055 -0.0063287255543023 0)
(1.0007996364226 -0.0074641019099157 0)
(1.0010654448107 -0.0085951210246335 0)
(1.0013688112335 -0.0097223398631789 0)
(1.0017105198155 -0.010845834495538 0)
(1.0020907600268 -0.011965189143778 0)
(1.002510954782 -0.013081649994869 0)
(1.0029710253203 -0.014194327417062 0)
(1.0034734034016 -0.015303978204736 0)
(1.004016762386 -0.016405950454008 0)
(1.0046052201602 -0.017501476586163 0)
(1.0052344054455 -0.018582098106562 0)
(1.0059125125468 -0.019655077964882 0)
(1.0066287576427 -0.020705387159996 0)
(1.0074010812445 -0.021753669220205 0)
(1.0082043343425 -0.022767196308 0)
(1.0090785376944 -0.023794879729487 0)
(1.009965734484 -0.024760507044638 0)
(1.0109553208906 -0.025777165226731 0)
(1.011915490136 -0.026667413107729 0)
(1.0130452429048 -0.027694456335085 0)
(1.0140497338878 -0.028448526619123 0)
(1.0153704562539 -0.029543650702513 0)
(1.0163552496489 -0.030035941157511 0)
(1.017995874222 -0.031349619083701 0)
(1.0000003343624 -0.00059867401273576 0)
(1.0000377600541 -0.0018240796775231 0)
(1.0001119579778 -0.0030622471936019 0)
(1.0002247183178 -0.0043004209622311 0)
(1.0003759840668 -0.0055288148456154 0)
(1.000564961033 -0.0067462307733357 0)
(1.0007909414117 -0.0079562299175513 0)
(1.0010540450453 -0.0091623680003775 0)
(1.0013544948481 -0.01036566582626 0)
(1.0016932635135 -0.011566508764962 0)
(1.0020706973939 -0.012764747972181 0)
(1.0024885098064 -0.0139620334981 0)
(1.0029468038039 -0.015157622064941 0)
(1.0034484433029 -0.016352435649758 0)
(1.0039922032748 -0.01754141698148 0)
(1.0045828348951 -0.018725928222102 0)
(1.0052158126613 -0.019896802938817 0)
(1.0059004210182 -0.021062190019917 0)
(1.0066251479439 -0.022205836144567 0)
(1.0074100633129 -0.023350721167929 0)
(1.0082279345793 -0.024461055200934 0)
(1.0091231666778 -0.025590946498301 0)
(1.0100325397201 -0.026656426657423 0)
(1.0110547825014 -0.027782402918447 0)
(1.0120454829012 -0.028772590278477 0)
(1.0132241239735 -0.029918424433623 0)
(1.0142665353086 -0.030764717149655 0)
(1.0156598152662 -0.031994488919965 0)
(1.0166863906268 -0.032555735807529 0)
(1.0184424709705 -0.03403848441985 0)
(1.000000267762 -0.00063157868567869 0)
(1.0000365799155 -0.0019272905275962 0)
(1.0001088449776 -0.0032374948428556 0)
(1.0002188836649 -0.0045476359428392 0)
(1.0003665831956 -0.0058467064064103 0)
(1.0005510859512 -0.0071336393484709 0)
(1.0007716785787 -0.0084129122705297 0)
(1.0010285710904 -0.0096889803600106 0)
(1.0013221085661 -0.010963390988345 0)
(1.0016534525432 -0.012236886526532 0)
(1.0020231178469 -0.013509645315009 0)
(1.0024331092431 -0.01478376826135 0)
(1.0028837349208 -0.016058720309318 0)
(1.0033782901845 -0.017335609211103 0)
(1.0039156966805 -0.018609031549034 0)
(1.0045013286826 -0.01988048156816 0)
(1.0051305969428 -0.02114018753719 0)
(1.00581382873 -0.022397178974014 0)
(1.0065389837353 -0.023634158979771 0)
(1.0073280726297 -0.024876371694536 0)
(1.0081522923919 -0.02608529533159 0)
(1.0090597382364 -0.027319867261748 0)
(1.0099834228744 -0.028489276623796 0)
(1.0110290270337 -0.029728599295794 0)
(1.0120440731684 -0.030826090534908 0)
(1.0132610332998 -0.032095140266759 0)
(1.0143394503035 -0.033046144595337 0)
(1.0157913359836 -0.034413142646425 0)
(1.0168662461616 -0.035063603045446 0)
(1.0187248955227 -0.036721045300622 0)
(1.0000001922995 -0.00066138437920478 0)
(1.0000348774554 -0.0020213812963272 0)
(1.0001042104529 -0.0033976562672817 0)
(1.0002100214681 -0.004773804213491 0)
(1.000352137727 -0.0061375762539283 0)
(1.0005296398089 -0.0074880662694392 0)
(1.00074181332 -0.0088307322961555 0)
(1.0009889565891 -0.010170990048219 0)
(1.0012715377688 -0.011510969477956 0)
(1.0015908996435 -0.012851811648994 0)
(1.0019477307244 -0.014194080788972 0)
(1.0023443175452 -0.015540368820625 0)
(1.0027811914886 -0.016890415411317 0)
(1.0032620636797 -0.018245529512067 0)
(1.003786044533 -0.019600039358669 0)
(1.0043591022765 -0.020955564781947 0)
(1.0049766742526 -0.022301865040519 0)
(1.0056500674666 -0.023648820781517 0)
(1.0063668934447 -0.024978324204672 0)
(1.0071509616355 -0.02631777254364 0)
(1.0079722372174 -0.027626295398063 0)
(1.0088822156196 -0.028967332341771 0)
(1.0098107185924 -0.030243903530697 0)
(1.0108698974134 -0.031600538934636 0)
(1.0119000031517 -0.032811003971127 0)
(1.0131459781522 -0.034209830308175 0)
(1.014251717661 -0.035273711596193 0)
(1.0157542792198 -0.036787050690895 0)
(1.0168699847504 -0.037537888455714 0)
(1.0188245313164 -0.039381040060515 0)
(1.0000001095721 -0.00068792846140287 0)
(1.0000326730649 -0.0021058101601061 0)
(1.0000981070747 -0.0035417877865649 0)
(1.0001982290761 -0.0049775761370073 0)
(1.0003328000709 -0.0063996759059316 0)
(1.0005008399864 -0.0078073662149053 0)
(1.0007016363688 -0.0092071361291596 0)
(1.0009355690203 -0.010605409000157 0)
(1.0012032253215 -0.012004945143519 0)
(1.0015061137775 -0.013407318707532 0)
(1.0018450967708 -0.014813534904208 0)
(1.0022227200889 -0.016226708198253 0)
(1.0026397518178 -0.017646922277581 0)
(1.0031002841527 -0.019075694713902 0)
(1.0036036596579 -0.020507182423706 0)
(1.0041563835049 -0.021943108171031 0)
(1.0047540168537 -0.02337293976047 0)
(1.0054087537157 -0.024807335576703 0)
(1.0061080297564 -0.026227684921451 0)
(1.006877325526 -0.027663354623497 0)
(1.0076856070328 -0.029071587147552 0)
(1.0085876681776 -0.030520017925174 0)
(1.009510357463 -0.03190601881702 0)
(1.0105723193435 -0.03338330952597 0)
(1.0116066707698 -0.034711508657611 0)
(1.0128710652921 -0.036246162692798 0)
(1.0139935790568 -0.037430623923434 0)
(1.0155373229694 -0.039099026365368 0)
(1.0166843719492 -0.039961198097662 0)
(1.0187257645294 -0.042000223831117 0)
(1.0000000205331 -0.00071112014397273 0)
(1.0000300023116 -0.0021802510319478 0)
(1.0000906313323 -0.0036693052737646 0)
(1.0001836874085 -0.005158103900683 0)
(1.0003088605117 -0.0066318979978276 0)
(1.0004651102021 -0.0080901707868148 0)
(1.0006517265822 -0.009540478115933 0)
(1.0008691601543 -0.010990284379529 0)
(1.0011181096381 -0.012443018576265 0)
(1.0014002260767 -0.013900715020407 0)
(1.0017165409222 -0.015364868157641 0)
(1.0020698229639 -0.016839138433281 0)
(1.0024610885413 -0.018324020255156 0)
(1.0028947514107 -0.019821241516791 0)
(1.0033704403257 -0.021324896842918 0)
(1.0038950921226 -0.022836775847538 0)
(1.0044645345924 -0.024346268448274 0)
(1.0050916484397 -0.025864687257415 0)
(1.0057639948245 -0.027373315890835 0)
(1.0065083636393 -0.028903187800032 0)
(1.007293249156 -0.030410287691019 0)
(1.0081762018785 -0.031965991744684 0)
(1.0090818273614 -0.033462636976232 0)
(1.0101346585572 -0.035063047545764 0)
(1.0111614996519 -0.036512526653421 0)
(1.0124321863975 -0.038188565551317 0)
(1.0135597432999 -0.039500189649063 0)
(1.0151334094873 -0.041332034481882 0)
(1.0163002804603 -0.04231615665249 0)
(1.0184179221463 -0.044559167185328 0)
(0.99999992731939 -0.00073093690912234 0)
(1.0000269107869 -0.0022445859635627 0)
(1.0000819103463 -0.0037799749824372 0)
(1.0001666434447 -0.0053150337247146 0)
(1.0002807223417 -0.0068337719820598 0)
(1.0004230457755 -0.0083358884152582 0)
(1.0005929044827 -0.0098300258854032 0)
(1.000790804484 -0.011324709147659 0)
(1.0010175442459 -0.012824062897164 0)
(1.0012748898721 -0.014330602781867 0)
(1.0015640316503 -0.015846351591879 0)
(1.0018879159002 -0.01737553545651 0)
(1.0022478105599 -0.01891911497859 0)
(1.0026483752707 -0.02047903457136 0)
(1.0030895784767 -0.022049424508744 0)
(1.0035786469264 -0.023632119666543 0)
(1.0041118536251 -0.025216630281367 0)
(1.0047024543663 -0.026814813350115 0)
(1.0053386028246 -0.028408246550416 0)
(1.0060476865122 -0.030029284798219 0)
(1.0067988043245 -0.031633425375346 0)
(1.0076507843524 -0.03329505439477 0)
(1.00852805525 -0.034902570516097 0)
(1.0095585478797 -0.0366272667086 0)
(1.0105659236418 -0.038200355232541 0)
(1.0118286679917 -0.040022739142448 0)
(1.0129497580512 -0.041465992657724 0)
(1.0145380051361 -0.043471271081215 0)
(1.015716272248 -0.044583369161269 0)
(1.017885647458 -0.047039105810777 0)
(0.99999983082955 -0.00074741570061134 0)
(1.0000234476258 -0.0022988793999718 0)
(1.0000720863114 -0.0038738745227461 0)
(1.0001473786867 -0.0054484572213371 0)
(1.0002488566823 -0.0070054096410633 0)
(1.0003753556746 -0.008544648895856 0)
(1.0005261608397 -0.010075909975693 0)
(1.0007018156821 -0.011608782762135 0)
(1.0009032015195 -0.013148100879783 0)
(1.0011321673659 -0.01469687153179 0)
(1.0013900434815 -0.016257672585763 0)
(1.0016799075094 -0.017835312519571 0)
(1.0020032666056 -0.019431263067017 0)
(1.0023649570935 -0.021047703355039 0)
(1.0027653055002 -0.022678875166739 0)
(1.0032117156577 -0.0243266719033 0)
(1.003701007927 -0.025980858837055 0)
(1.0042465771081 -0.027653811889325 0)
(1.0048374923928 -0.029327670073083 0)
(1.0055011526586 -0.031035909020086 0)
(1.0062081897544 -0.032734211657767 0)
(1.0070172032395 -0.034499113261349 0)
(1.0078548036351 -0.036216917913504 0)
(1.0088489434508 -0.038064948906264 0)
(1.0098247557399 -0.039763855338965 0)
(1.011063874521 -0.041734878403881 0)
(1.0121658823111 -0.043313910485679 0)
(1.0137516744261 -0.045501402171013 0)
(1.0149328044855 -0.046746442210304 0)
(1.0171256994286 -0.049423615077124 0)
(0.99999973161928 -0.00076064474389007 0)
(1.0000196579396 -0.0023433461486614 0)
(1.0000612952138 -0.0039513266404259 0)
(1.000126176295 -0.0055588054660183 0)
(1.0002137530105 -0.0071473624898601 0)
(1.0003227908622 -0.0087171294799086 0)
(1.0004525607267 -0.010278923516028 0)
(1.000603623265 -0.011843388616844 0)
(1.0007769294956 -0.013416073018925 0)
(1.0009743724871 -0.015000473149162 0)
(1.00119739687 -0.016599734515362 0)
(1.0014491484137 -0.01821924165358 0)
(1.0017313552019 -0.019861015686389 0)
(1.0020489526223 -0.021527480904504 0)
(1.0024026377757 -0.023213069604379 0)
(1.0027998865351 -0.024919750851841 0)
(1.0032381259954 -0.026637656376905 0)
(1.0037307160574 -0.028379698303782 0)
(1.0042677956031 -0.030128716987531 0)
(1.0048764326666 -0.031919331750121 0)
(1.0055292524242 -0.033707634680691 0)
(1.0062837172113 -0.035572157423856 0)
(1.0070702163687 -0.037398008286864 0)
(1.0080138423643 -0.039366865242585 0)
(1.0089461810285 -0.04119298520196 0)
(1.0101442357517 -0.043310897980476 0)
(1.0112148771664 -0.045031392721789 0)
(1.012779195256 -0.04740393947655 0)
(1.0139489791165 -0.048789037801777 0)
(1.0161486701044 -0.051691177000098 0)
(0.99999962703193 -0.00077078023318943 0)
(1.0000156087634 -0.0023783760280225 0)
(1.0000497149878 -0.0040128897447529 0)
(1.0001033686411 -0.0056467681067618 0)
(1.0001759530907 -0.0072604432505 0)
(1.0002661623712 -0.0088542637073496 0)
(1.0003732442485 -0.010440110724713 0)
(1.000497742851 -0.012029652897878 0)
(1.0006406715502 -0.013629151599694 0)
(1.0008039267126 -0.015242579555819 0)
(1.0009890709446 -0.016873666668825 0)
(1.0011992185032 -0.018528340749038 0)
(1.001436325918 -0.020209221288131 0)
(1.0017052665735 -0.021918934960354 0)
(1.0020072103183 -0.023652218550103 0)
(1.0023494514463 -0.025411031530461 0)
(1.0027302835787 -0.027186072226795 0)
(1.0031625713535 -0.028990638126386 0)
(1.0036380338952 -0.030808566721093 0)
(1.0041826007602 -0.032675455567545 0)
(1.0047718189618 -0.034548065988731 0)
(1.0054606445166 -0.036507026321091 0)
(1.0061849668526 -0.038436030462156 0)
(1.0070644315039 -0.040522058807231 0)
(1.0079411416896 -0.042472082971895 0)
(1.0090807740386 -0.044734518034115 0)
(1.0101090276527 -0.046598287036135 0)
(1.0116272859809 -0.04914889940484 0)
(1.0127761551853 -0.050684905740671 0)
(1.0149641212497 -0.053807889535758 0)
(0.99999951806523 -0.00077812728335443 0)
(1.0000114764475 -0.0024047884385632 0)
(1.0000377393838 -0.0040597280628608 0)
(1.0000795793186 -0.0057137634904079 0)
(1.0001363235759 -0.0073462748695895 0)
(1.000206613544 -0.0089578086169549 0)
(1.0002896769284 -0.010561287996337 0)
(1.0003859994176 -0.012169399331243 0)
(1.0004966662453 -0.013789150833796 0)
(1.0006235290624 -0.015424956620092 0)
(1.0007683046707 -0.017081115364367 0)
(1.0009339447952 -0.01876404419461 0)
(1.0011227112294 -0.020477064142845 0)
(1.0013391501832 -0.022222958398572 0)
(1.0015851933169 -0.023996990326959 0)
(1.0018673882018 -0.025800878374305 0)
(1.0021856224599 -0.027626280355044 0)
(1.0025510219457 -0.029486293205858 0)
(1.0029585847183 -0.031366590704461 0)
(1.0034304349943 -0.033302626837183 0)
(1.0039487561642 -0.03525334932576 0)
(1.0045603871131 -0.037299887405824 0)
(1.005214563014 -0.039326089452837 0)
(1.0060140312649 -0.041523956663807 0)
(1.0068273164768 -0.043590837380218 0)
(1.0078867005949 -0.045998511574576 0)
(1.0088685874984 -0.047992745686491 0)
(1.0103106378402 -0.050739802444636 0)
(1.011442554337 -0.05239159855379 0)
(1.013574575998 -0.055791008692909 0)
(0.99999939981373 -0.00078325901289981 0)
(1.0000075356808 -0.0024243553066875 0)
(1.0000259570881 -0.0040946058375624 0)
(1.0000556308494 -0.0057635675975572 0)
(1.0000959180194 -0.0074097465154623 0)
(1.0001454658981 -0.0090338056764532 0)
(1.0002034202992 -0.010649610077076 0)
(1.0002701083687 -0.012270932118162 0)
(1.0003469023228 -0.013905546979902 0)
(1.000435631614 -0.015558326898927 0)
(1.0005381570031 -0.017234126403021 0)
(1.0006570776583 -0.01893976451883 0)
(1.000794954072 -0.020679368414766 0)
(1.0009557663677 -0.022455880285446 0)
(1.0011425382399 -0.024265477477272 0)
(1.0013605193971 -0.02610948368232 0)
(1.0016120335128 -0.027981346642668 0)
(1.0019049317705 -0.029893092968914 0)
(1.002239761872 -0.031834174470723 0)
(1.0026308384126 -0.033837211679492 0)
(1.0030730201863 -0.035868015955212 0)
(1.0035947278189 -0.038001876026555 0)
(1.0041744107952 -0.040132952612598 0)
(1.0048721132515 -0.042445539077733 0)
(1.0056227046219 -0.044644771167237 0)
(1.0065608829851 -0.047208970466287 0)
(1.0075153895995 -0.049354822394933 0)
(1.008803277265 -0.05234154093983 0)
(1.0100115857372 -0.054125873791018 0)
(1.0119823000066 -0.058088689256502 0)
(0.99999920548299 -0.00078754120507555 0)
(1.000003241119 -0.0024414174217965 0)
(1.000013753745 -0.0041262047425611 0)
(1.0000308995571 -0.0058103188530743 0)
(1.0000544040214 -0.0074709026321562 0)
(1.00008310668 -0.009108536052696 0)
(1.0001161217528 -0.010737953280899 0)
(1.0001534882133 -0.012374024644165 0)
(1.000196143614 -0.014025961614486 0)
(1.0002459460639 -0.015698799226281 0)
(1.000304914636 -0.017397981729 0)
(1.0003753015102 -0.019130876016139 0)
(1.0004598680443 -0.020902593096759 0)
(1.000561955078 -0.022716257510415 0)
(1.0006855630794 -0.024569117102269 0)
(1.0008348814703 -0.026461896479982 0)
(1.0010147585631 -0.028390598207314 0)
(1.0012297914105 -0.030365687218856 0)
(1.0014865428119 -0.032382786651489 0)
(1.0017905872897 -0.034469182649534 0)