/*--------------------------------*- C++ -*----------------------------------*\
| =========                 |                                                 |
| \\      /  F ield         | OpenFOAM: The Open Source CFD Toolbox           |
|  \\    /   O peration     | Version:  2112                                  |
|   \\  /    A nd           | Website:  www.openfoam.com                      |
|    \\/     M anipulation  |                                                 |
\*---------------------------------------------------------------------------*/
FoamFile
{
    version     2.0;
    format      ascii;
    arch        "LSB;label=32;scalar=64";
    class       volScalarField;
    location    "4";
    object      p;
}
// * * * * * * * * * * * * * * * * * * * * * * * * * * * * * * * * * * * * * //

dimensions      [0 2 -2 0 0 0 0];

internalField   nonuniform List<scalar> 
22000
(
0.082021862099716
0.081986658799852
0.081913268714805
0.081799990964578
0.081646178359807
0.081451952562942
0.081217692311987
0.080943727127481
0.08063027961145
0.080277528766025
0.07988566888476
0.079454933983142
0.078985594143693
0.078477951143816
0.077932324287994
0.077349068161696
0.076728578865325
0.076071332996825
0.075377851825042
0.074648719562335
0.073884466184816
0.073085667237235
0.072252904950051
0.071387106234689
0.070489133137949
0.069560091392451
0.068600469067499
0.067611635076749
0.066593924414261
0.065549792601962
0.082685532483687
0.082648584121207
0.082573153038835
0.082457761588903
0.082301713618395
0.082105003816642
0.081867909572182
0.081590705843966
0.081273587901448
0.08091671217668
0.080520242254336
0.080084372409931
0.079609326800555
0.079095363001391
0.078542755924269
0.077951825263627
0.077322934531389
0.076656545901083
0.075953164826627
0.075213381155524
0.074437670927633
0.073626572520451
0.072780573769979
0.07190067340831
0.070987630626057
0.070042677311868
0.069065953823975
0.068059152688245
0.067021860400234
0.065957089543208
0.083900348430171
0.083862479813068
0.083785331057436
0.083667535476183
0.083508438305431
0.083308006253182
0.083066462359088
0.08278402881366
0.082460853605953
0.082097047913975
0.081692726622327
0.081248031369185
0.080763126150427
0.080238204163182
0.079673464157065
0.079069155453697
0.078425567882851
0.077743118540216
0.077022254958595
0.076263541129188
0.07546733312424
0.07463411871011
0.073764231303873
0.072858803203654
0.071918388813129
0.07094449817167
0.06993667414782
0.068897313188207
0.067824591106965
0.066722770364347
0.085582840373728
0.085544123762361
0.08546525018064
0.085344837591969
0.085182218854088
0.084977338282212
0.084730381027791
0.084441517881081
0.084110834706163
0.083738373936932
0.083324174049163
0.082868294978766
0.082370808866253
0.081831813353464
0.08125139986104
0.080629721441013
0.079966959695708
0.079263448735421
0.078519518319599
0.077735666898986
0.076912080029625
0.076049198862557
0.075147130056217
0.07420715046246
0.073229461294044
0.072215966624059
0.071165346312619
0.070080992583435
0.068958961911403
0.067805274728266
0.087658870997279
0.087619306748344
0.087538699404918
0.087415640286562
0.087249431083271
0.08703997555845
0.086787404805425
0.086491821022837
0.086153226912654
0.085771570417296
0.085346782703289
0.08487880852022
0.08436759248726
0.083813100931571
0.083215277788502
0.082574137982122
0.081889701691443
0.081162171485004
0.08039170380222
0.07957870347717
0.078723132857481
0.077825373493073
0.076885210794009
0.075904070443003
0.074881644270253
0.073820337483816
0.072717691094547
0.071578384494504
0.070395695630071
0.06917796712458
0.090062357283933
0.090022058881956
0.089939946059933
0.089814586749747
0.089645243220008
0.08943176120678
0.089174196006154
0.08887255707697
0.088526737011377
0.088136559674693
0.08770181617984
0.08722230143138
0.086697795386244
0.086128094409149
0.085512950324886
0.08485219388339
0.084145628751492
0.083393272732022
0.082595038079171
0.08175118135007
0.080861360907209
0.079925867858236
0.078944061021817
0.077917513809898
0.076845238283911
0.075730240514267
0.074568639423711
0.073366691333729
0.072114239635949
0.070822463196615
0.092733533809951
0.092692742486785
0.092609609760867
0.092482685090222
0.092311184889379
0.092094880832567
0.091833730970265
0.091527628002301
0.091176328008351
0.090779501471063
0.090336765095262
0.089847724931685
0.089311950614245
0.088729019861622
0.088098437985338
0.08741979877702
0.086692628702488
0.085916705230217
0.085091624271532
0.084217436286999
0.083293412609657
0.082319716418439
0.081295172389886
0.080221484629239
0.079096795532035
0.077924784872406
0.076699834382484
0.075430030508711
0.074101093720609
0.072727492128858
0.095617570762204
0.095576646886171
0.095493221069343
0.095365832302797
0.095193646656897
0.094976346791356
0.094713772565723
0.094405675403635
0.094051646682547
0.093651171764545
0.093203656972384
0.092708480829084
0.092164960222255
0.091572410689862
0.09093004106209
0.090237154791189
0.089492934459301
0.088696847722769
0.087848087917529
0.086946422129892
0.085990641118447
0.084980716262395
0.083914814287734
0.082794727620504
0.081617517122443
0.080387612902878
0.079097291263163
0.077756743067935
0.076346852496897
0.074885765326042
0.098663748489293
0.098623161711704
0.098540387644403
0.098413965517481
0.098243008210739
0.098027095354808
0.09776592893218
0.097459096917839
0.097106001547645
0.096705915859224
0.096258004144332
0.095761380792306
0.095215066132328
0.094618063762164
0.093969228781563
0.093267512160584
0.092511684748033
0.091700830728065
0.090833664739679
0.089909580882386
0.088926809623554
0.08788504071481
0.086781669260574
0.085618528760191
0.084391329766409
0.083105397144098
0.081750368670615
0.080338802959511
0.078846064544623
0.077294042037303
0.10182506176619
0.10178536592052
0.10170437494318
0.10158063017053
0.1014131883001
0.10120151589017
0.10094516134753
0.10064353098591
0.10029581684926
0.099901054811317
0.099458137106968
0.098965879912787
0.098422967178229
0.097828047445233
0.097179572991326
0.096476086770675
0.095715883990484
0.094897587254284
0.0940193554792
0.093080102794289
0.092077421936907
0.091010597424754
0.089876152036331
0.088675864361192
0.087403878832744
0.086066486988142
0.084650384768117
0.083170449215965
0.081596444505867
0.079952097652957
0.10505812528136
0.10501993840565
0.10494199869157
0.10482285189945
0.10466149393791
0.1044572726435
0.1042095730255
0.10391760591141
0.10358033712619
0.10319654774377
0.10276483704807
0.10228369819995
0.10175144702984
0.10116633969262
0.10052637904017
0.099829645769699
0.099073895326831
0.098257214312664
0.097377127974782
0.096431962952789
0.095418602035153
0.094335756199861
0.093179063864383
0.091949900793426
0.09064101941624
0.089258938188676
0.087788200540281
0.086244313899013
0.084595594399536
0.08286423207222
0.10832323474475
0.10828721810231
0.10821367727639
0.10810117621036
0.10794864878574
0.1077553197921
0.10752040742333
0.10724292265823
0.10692159777152
0.1065549487729
0.10614126779889
0.1056787072725
0.10516519095844
0.1045985532107
0.10397631070173
0.1032960391925
0.10255490232752
0.1017503884505
0.10087931616936
0.099939330615921
0.098926521846509
0.09783888048414
0.096671116342012
0.095423895066682
0.094088702205685
0.092671723695374
0.091155572564053
0.089556386723909
0.087838896125248
0.086027144809047
0.11158447051054
0.11155129856231
0.11148353075818
0.11137977078745
0.11123889639701
0.1110600078481
0.11084215655645
0.11058415585185
0.1102845058933
0.10994145702503
0.10955299085122
0.10911691225109
0.10863074131859
0.10809187610846
0.10749732540116
0.10684413077534
0.10612882303657
0.10534824190542
0.10449843454431
0.10357628955592
0.10257701181718
0.10149777190376
0.10033222398882
0.099080188038268
0.097731705963045
0.096292501136768
0.09474294948967
0.093099811153648
0.09132350532425
0.089439781065963
0.11480985141386
0.11478018736247
0.1147195451129
0.11462659350794
0.11450016639776
0.11433924351575
0.11414271407367
0.11390920232221
0.11363698703776
0.11332406363552
0.11296811240785
0.11256659844356
0.1121166416147
0.1116152017845
0.11105877079242
0.1104438417936
0.10976628804726
0.10902226871486
0.10820701215506
0.10731659319245
0.10634525148252
0.10528925317845
0.1041410782396
0.10289957110555
0.10155316306429
0.10010693616239
0.098538766923442
0.096865886480979
0.095043784533491
0.093099596736926
0.11797146116783
0.1179459348346
0.1178937046638
0.11781353150957
0.11770422188073
0.11756464518051
0.11739353963474
0.11718935620025
0.11695017187388
0.11667374821565
0.11635748506501
0.11599852795609
0.11559361412561
0.11513928102369
0.1146315130945
0.11406625931949
0.11343873101302
0.11274439713078
0.11197764040797
0.11113368795298
0.11020575287816
0.1091891349016
0.10807503206112
0.10686120375519
0.10553429444196
0.10409857628993
0.10252908046073
0.10084346670565
0.098991125805017
0.097001605570402
0.12104550707125
0.12102469541379
0.12098205861485
0.12091647694917
0.12082674881817
0.12071164851751
0.12056978089655
0.12039944649663
0.12019854843485
0.11996464509601
0.11969488806467
0.11938613628121
0.11903477709445
0.11863695812311
0.11818818551778
0.11768389102697
0.11711864040018
0.11648722590442
0.11578318174022
0.11500088104928
0.11413247140098
0.11317225408609
0.11211005625098
0.11094249132057
0.10965425498836
0.10824871521915
0.1066977680197
0.10501909624299
0.1031557566783
0.10113567813563
0.1240122927931
0.12399670403052
0.12396470376985
0.12391531963773
0.12384736320568
0.12375953268326
0.12365032222887
0.12351791076869
0.12336006252391
0.1231741721544
0.1229571862873
0.12270572298904
0.12241586736136
0.12208342510666
0.12170347083777
0.12127096409688
0.12077986472032
0.12022432743465
0.11959706016302
0.11889160687638
0.11809904042837
0.11721265776374
0.11622086841012
0.11511906724392
0.11388996179761
0.11253577581336
0.11102534231973
0.10937574531892
0.10752357528387
0.10549372090119
0.12685609958442
0.12684616106448
0.12682567940182
0.12679385444324
0.12674953350452
0.12669136148691
0.12661774971183
0.12652678971831
0.1264161474986
0.12628309982574
0.12612443997336
0.12593660051033
0.12571542446366
0.12545643697426
0.12515434567005
0.12480370123509
0.12439792091875
0.12393058519474
0.12339362826709
0.12277981826737
0.12207917624694
0.12128402222212
0.12038133970383
0.11936525321373
0.11821647278935
0.11693584531528
0.11548921050193
0.11389251297699
0.11207573877351
0.11005936756338
0.12956498743263
0.12956103815554
0.12955277856258
0.12953960790537
0.12952042820124
0.12949385436866
0.12945824702741
0.1294116494637
0.12935167514551
0.12927553349031
0.1291799228362
0.12906115306023
0.1289148962848
0.12873646864524
0.12852029194324
0.12826058589993
0.12795031209237
0.12758255864223
0.12714856739305
0.12664041134735
0.12604711608382
0.12536009145075
0.12456492358415
0.12365448496208
0.12260748148692
0.12142320907923
0.12006442120106
0.1185455277688
0.11678974022174
0.11481243848337
0.13213050670191
0.13213280499973
0.13213729519713
0.13214359705118
0.13215069040965
0.13215718762982
0.13216143212363
0.1321614577876
0.13215487130662
0.13213886605764
0.13211010933966
0.13206485744401
0.1319986949981
0.13190680913152
0.13178343431188
0.13162254591129
0.13141676328181
0.13115877379464
0.13083924519613
0.13044964494569
0.12997810063631
0.12941519357468
0.12874517708688
0.1279597633107
0.12703572723376
0.12597084467214
0.12472467091228
0.12330951635615
0.12164114515383
0.11972892245344
0.13454736395301
0.13455608660115
0.13457368664286
0.13460001704865
0.13463415123621
0.13467472711604
0.1347201124037
0.13476837589316
0.13481716346078
0.13486369856577
0.1349046778376
0.13493636755072
0.13495435257691
0.13495377244327
0.13492879347006
0.13487323652264
0.134779529816
0.13464005002286
0.13444507361492
0.13418554324635
0.13384887527803
0.13342486898295
0.13289657194934
0.13225454350371
0.13147371798221
0.13055056544822
0.12944173913975
0.12815778043771
0.12660545466818
0.12478559217439
0.13681302480389
0.13682826243347
0.13685917693279
0.13690585354022
0.1369674766057
0.13704272561155
0.13713001440446
0.13722748809082
0.13733289503934
0.13744355613283
0.13755626953365
0.13766736762122
0.13777251177274
0.13786685323342
0.13794461235678
0.13799952710974
0.13802402064874
0.13801021379918
0.13794826091825
0.1378285926161
0.13763829561368
0.13736632365896
0.1369949869532
0.13651340476392
0.13589497043585
0.13513420997987
0.13418519941003
0.13305823100131
0.13165150918023
0.12995778152404
0.13892740936344
0.13894907101874
0.13899322958321
0.139060240977
0.13914945922223
0.13925962200469
0.13938917077623
0.13953629968332
0.13969887559614
0.13987438643959
0.14005983824089
0.14025172839567
0.14044590468498
0.14063759908483
0.14082120454605
0.14099041420037
0.14113783129236
0.14125530541721
0.14133319509845
0.14136126365383
0.14132686154929
0.141217641504
0.14101636610158
0.14070964242929
0.14027149263362
0.13969131687749
0.13892269191586
0.13796951280984
0.13672711485637
0.13519057855401
0.1408928443147
0.14092049110662
0.14097726058048
0.14106396708074
0.14118021098235
0.14132483030349
0.14149633450183
0.14169295944303
0.14191265662652
0.14215303798979
0.14241128487331
0.14268407408464
0.14296753872732
0.14325714001299
0.14354764417354
0.1438328395559
0.14410572161798
0.14435789366201
0.14458022645758
0.14476160952213
0.14489031870768
0.14495186073272
0.14493113580888
0.14480970730352
0.14456731204502
0.14418125265976
0.143617020761
0.14284657830316
0.1417765120595
0.14036089125929
0.14271457743066
0.14274770127063
0.14281578336948
0.14292077612629
0.14306234412282
0.14323950418913
0.14345089987689
0.143694915515
0.14396979050464
0.14427341779169
0.14460314249736
0.1449556527215
0.14532712652144
0.14571314304781
0.14610888521443
0.14650853035319
0.14690582121265
0.14729260543089
0.14766064611149
0.14799834167404
0.14829528476279
0.14853493399049
0.14870524828959
0.14878150888492
0.14875267475669
0.14857773419567
0.14825290113866
0.14769458972914
0.14687061594854
0.14547181999871
0.064544951567806
0.063584167845344
0.062602965230625
0.061603212852944
0.060586638869112
0.059554550310684
0.058507971698668
0.057447857809875
0.056375221326166
0.055291151271865
0.054196771684649
0.053093203949254
0.051981560929806
0.050862963108675
0.049738556352639
0.048609520437727
0.047477068428513
0.046342440698759
0.045206898891848
0.044071720157636
0.042938191684964
0.041807611212921
0.040681289361111
0.039560555104021
0.038446747382099
0.037340974696357
0.036244044039586
0.035157027578577
0.034081108641959
0.033017415866847
0.031966992164764
0.030930812049795
0.029909777046754
0.028904715564786
0.027916410017221
0.026945611933375
0.02599303704422
0.025059343555849
0.024145125730563
0.023250877163701
0.022376991750115
0.021523726811222
0.020691289501623
0.019879787627024
0.019089407530734
0.018320193346032
0.017572413660005
0.016845960377819
0.016141229578846
0.015457630762887
0.064936592811294
0.063964097687508
0.062968349011155
0.061953683660263
0.060922578572293
0.05987596432653
0.058814267979818
0.057738085819625
0.056648337990256
0.055546150580851
0.054432707434461
0.053309178931504
0.052176722593827
0.051036509741355
0.049889744789065
0.04873767045348
0.047581563512377
0.046422730305482
0.045262501959692
0.044102230279768
0.042943283480215
0.041787029056768
0.040634809679767
0.039487898455981
0.038347465183233
0.037214860049607
0.036091723249708
0.034979342330063
0.033878854970295
0.032791405796181
0.031718105879972
0.030659973120741
0.029617964811945
0.028593014379297
0.027586013753988
0.026597778615075
0.025629049515514
0.024680493756594
0.023752717654664
0.022846241753347
0.021961526087623
0.021098922583657
0.020258761508945
0.019441230434086
0.018646581766899
0.017874837730194
0.017126261349706
0.016400687025205
0.01569857440798
0.01501966726747
0.065668709216048
0.064661975960437
0.063626013192728
0.062570519547792
0.061499839858202
0.060414485446147
0.059313989948286
0.058198468896161
0.057068808298266
0.055926283833439
0.054772217915297
0.053607856481287
0.052434393567099
0.051253029905129
0.050065008039474
0.048871618921802
0.04767419565341
0.046474102874539
0.045272729955329
0.04407148444736
0.042871783328493
0.041675051070636
0.040482711828871
0.039296206673586
0.038117025649637
0.036946627603534
0.035786356309278
0.034637565534054
0.033501513563332
0.032379342533293
0.031272177398376
0.030181162529156
0.029107393920329
0.028051863985969
0.02701547980201
0.02599908379457
0.025003457947962
0.02402929845804
0.02307722473454
0.022147758045849
0.021241357975643
0.020358374153639
0.019499121973517
0.018663780243052
0.017852558661528
0.017065477093877
0.016302777868172
0.015564535858539
0.014851916862473
0.014167237689831
0.06670146345718
0.065640197042706
0.06454139836187
0.063423112232428
0.06229242526926
0.061149083358151
0.059991197514323
0.058818134931345
0.057630720947722
0.056430439121003
0.055218792009645
0.053997103924961
0.052766585197794
0.051528439549981
0.05028392073235
0.049034341043211
0.047781059576283
0.046525469518532
0.045268992089272
0.044013076132301
0.042759200419266
0.041508871115497
0.040263616279454
0.03902497243605
0.037794463171354
0.036573579718377
0.035363731156158
0.034166282855585
0.032982572115935
0.031813919596281
0.030661606409469
0.029526832219158
0.028410705304555
0.027314253672698
0.026238439534824
0.025184145917994
0.024152179434753
0.023143251563864
0.022158007642776
0.02119698873404
0.020260692992627
0.019349483825251
0.018463730696652
0.017603612709749
0.016769438697845
0.015961238133382
0.015179508824328
0.014424495324803
0.013698327873558
0.013005116061515
0.068011153303143
0.066877808247611
0.065696047855701
0.06449532766668
0.0632863505183
0.062067709450307
0.06083553755839
0.05958819243497
0.058326436468821
0.05705204216622
0.055766746458159
0.054471961645494
0.053168902753882
0.051858764419443
0.050542806683915
0.049222365277873
0.047898833762459
0.046573646725586
0.045248272766347
0.043924216176884
0.042603017662346
0.041286245595454
0.039975479552645
0.038672284088528
0.037378188036447
0.036094696841876
0.034823319201723
0.033565527686834
0.032322765921621
0.031096429973463
0.029887836582715
0.02869821480203
0.027528722279607
0.026380441976824
0.025254383790741
0.024151469960239
0.023072553259162
0.022018387214999
0.020989665501258
0.019986955699674
0.019010797615078
0.018061556193266
0.017139647479787
0.016245214948577
0.015378638976519
0.014539863659407
0.013729617346896
0.012948317085439
0.012199722068336
0.011491734810362
0.069581455072313
0.068359962404042
0.06707629758543
0.065774644870821
0.064470240340719
0.063160095364955
0.061837772219008
0.060500350366736
0.0591485422927
0.057784511526989
0.056410300144133
0.055027427962178
0.05363710767635
0.052240514002232
0.050838906276554
0.049433639029579
0.048026135690733
0.046617863397504
0.045210322845181
0.043805049273266
0.04240361319134
0.041007615779155
0.039618673152134
0.038238407382722
0.036868446165953
0.035510403059453
0.034165881712956
0.032836458391478
0.031523644634732
0.030228871865876
0.028953521207039
0.027698919954925
0.02646631283831
0.025256840975078
0.024071570588736
0.022911482997434
0.021777492277192
0.020670391312045
0.019590916503667
0.018539649833874
0.017517173098125
0.01652383525317
0.015560105114091
0.01462605729199
0.01372218777434
0.012848321085486
0.012005589977933
0.011194498011828
0.010420756074017
0.0096955605274461
0.071403101095312
0.070078566996912
0.068674832996019
0.067254492346321
0.065838285649142
0.064421144838892
0.06299341142589
0.061550603450735
0.060093411744331
0.058624520009815
0.057146370396202
0.055660627788989
0.054168510644782
0.052671174921305
0.051169878487425
0.049665990158253
0.048160952817293
0.046656253175842
0.045153412453595
0.043653993220871
0.042159607910257
0.040671917357156
0.039192619206139
0.037723434259198
0.036266096124473
0.034822319000495
0.033393760257717
0.031982046077924
0.030588754649497
0.029215408594473
0.027863475177942
0.026534342616875
0.025229311028684
0.023949580093199
0.022696275351579
0.02147041833693
0.020272962517288
0.019104723060094
0.017966478682317
0.016858816700501
0.015782366684666
0.014737443061281
0.013724588069153
0.012743775786617
0.011795673412553
0.010879911090495
0.0099981720495659
0.0091509776308193
0.0083467902024627
0.0076013051319607
0.073470648118305
0.072028951611491
0.070487317850386
0.068930966456121
0.067387250870712
0.065848380390707
0.064300657739856
0.062737720866207
0.061160312547823
0.059571787666489
0.057975065948377
0.056371974697662
0.054763740539811
0.053151508334971
0.051536548862184
0.049920262292264
0.048304127870401
0.046689666788163
0.045078433869279
0.043472031427004
0.041872124212336
0.040280439003201
0.038698747561601
0.037128841286761
0.035572510317838
0.034031525770205
0.032507647705336
0.031002601563415
0.029518068996277
0.028055663971925
0.02661692871329
0.025203325524547
0.023816241870249
0.022456958359416
0.021126673904486
0.019826464642527
0.018557352609057
0.017320198985732
0.016115858187338
0.014944931908101
0.013808135051618
0.012705738125348
0.01163841751157
0.010606001192097
0.0096094408132692
0.0086480597037429
0.0077243422394727
0.0068386203290721
0.0060027326869294
0.0052367977011079
0.075782902135689
0.074210905324425
0.072513895032614
0.070804369279839
0.069117745950485
0.067442889219372
0.065761011902748
0.064063435834027
0.06235110446692
0.060628272880442
0.058898414764459
0.057163514477797
0.055424805725304
0.053683434511331
0.051940700434189
0.05019805400635
0.048457031958361
0.046719209686657
0.044986191014259
0.043259626711474
0.041541235240103
0.039832804781659
0.038136176963238
0.036453223065657
0.034785829167872
0.033135877037974
0.031505237693082
0.02989574996266
0.028309208135762
0.026747335179846
0.025211780321041
0.023704105832113
0.022225795953682
0.020778213700885
0.019362641189497
0.017980219112799
0.016632049546295
0.015319035946475
0.014042113781148
0.012801884492406
0.011599162711334
0.010434144924611
0.0093076762761707
0.0082193709193894
0.0071705496391608
0.0061600766055301
0.0051914572713947
0.0042645487108126
0.0033953797304595
0.0026087788971313
0.078340772353811
0.076625457187287
0.074755798141818
0.072876411640242
0.071031978123257
0.069207227515707
0.067377212552133
0.065530538516697
0.063668537049192
0.061796622535496
0.059918917371989
0.058037567022662
0.056153817554921
0.054268836864335
0.05238397715606
0.050500760264911
0.048620798448347
0.046745736445897
0.0448772396742
0.043017019537742
0.041166862602576
0.039328637739659
0.037504282042243
0.035695777015706
0.033905132054183
0.032134354331587
0.030385440776417
0.028660358311647
0.026961027399885
0.025289292885304
0.023646925702637
0.022035602067814
0.020456916820784
0.018912328212376
0.017403219003017
0.015930807812102
0.014496296194263
0.013100639193624
0.011744880200152
0.010429625051289
0.0091558285118651
0.0079235997375851
0.0067340168406011
0.0055864249929389
0.0044826395341292
0.0034209198860257
0.0024060943426297
0.0014372286284056
0.00053547943143577
-0.00026975079031589
0.08114835317138
0.079275348879823
0.077215238804016
0.075149861319851
0.073133599914747
0.071145582213847
0.069153649890176
0.067143545345032
0.065117225341513
0.063081474063893
0.061041153795893
0.058998586742005
0.056955034203321
0.054911705881674
0.052870040488298
0.050831668051627
0.048798308982067
0.046771704188654
0.044753603780135
0.042745801506935
0.040750174604476
0.038768698041211
0.036803430657834
0.034856487031922
0.032930016211395
0.031026165969273
0.029147086664328
0.027294899066157
0.025471680244224
0.023679425480345
0.021920050101472
0.020195365939935
0.018507106381613
0.016856853801219
0.015246121735301
0.013676229411931
0.012148507791066
0.010663978195254
0.0092238268367146
0.0078286607042067
0.0064796229326108
0.0051766977985293
0.0039212808779932
0.0027123451075525
0.0015523726127498
0.00043877916650741
-0.00062189718666679
-0.0016318879473214
-0.0025638223202836
-0.0033842032514725
0.084208938983187
0.08216542664962
0.079896653234924
0.077629258851107
0.075427643808628
0.073263324824267
0.071095865811492
0.068908089160754
0.066702807212076
0.06448838108068
0.062270526191153
0.060051766502128
0.057833374113101
0.055616617968651
0.053403065527246
0.051194502442846
0.048992801212255
0.046799839864368
0.044617490621012
0.042447662388032
0.040292352044238
0.038153664910433
0.036033804458947
0.033935042995245
0.031859697555002
0.02981009636602
0.027788580117882
0.025797456834411
0.023838989961277
0.021915362169406
0.02002867431857
0.018180908790311
0.016373967830225
0.014609586315629
0.012889437839974
0.011214965108076
0.0095876566911724
0.0080086152597116
0.0064792065706274
0.0050000365364044
0.0035724948412211
0.0021963986631796
0.00087357068581398
-0.00039751463106733
-0.0016134826641928
-0.0027780658980893
-0.0038825246612428
-0.0049310594514703
-0.0058888148479837
-0.0067190964671113
0.087523362717764
0.085298396495689
0.082804111811752
0.080319325716321
0.077919227870633
0.07556600899702
0.073209774766611
0.07083025908234
0.06843140049962
0.066023407284412
0.063612977591976
0.061202854946867
0.058794318237232
0.056388722759649
0.053987816913694
0.051593597231278
0.049208136099991
0.0468334910538
0.0444716985021
0.042124824900707
0.039795027934353
0.037484584779928
0.035195885106442
0.032931400306266
0.03069365764588
0.028485200845758
0.026308599573947
0.024166391273115
0.022061073219084
0.019995055865522
0.01797065964525
0.015990072999349
0.014055407026074
0.012168587209404
0.010331484697577
0.0085456996964182
0.0068129172007619
0.0051343494159146
0.0035115879163324
0.0019452455423457
0.00043702707284571
-0.0010134591458319
-0.0024038353613129
-0.0037362730647977
-0.0050062395239226
-0.0062189903711548
-0.0073629995745082
-0.0084453093956727
-0.0094221035832836
-0.0102549983732
0.091092073282059
0.088676897136314
0.085940960849914
0.083224148363776
0.080613198137508
0.078059106859181
0.075501255490651
0.072916181691842
0.070309296162506
0.067692934736617
0.06507488308258
0.062458108397618
0.059843896679494
0.057233731888818
0.05462961517224
0.052033824465002
0.049448691206699
0.046876504913817
0.044319515863045
0.041779997371655
0.039260318474341
0.036762979430931
0.034290607607851
0.031845925916506
0.029431724999911
0.027050818512942
0.024706056846805
0.022400259515002
0.020136202003945
0.017916566301987
0.015743945057575
0.013620786261209
0.011549458631112
0.0095321204289045
0.007570885467744
0.0056675526679829
0.0038240497981221
0.0020417336285035
0.00032247144575926
-0.0013331017255527
-0.0029228941873614
-0.0044475436214222
-0.0059039795610495
-0.0072951725898639
-0.0086151453307952
-0.0098710782076086
-0.011048038218932
-0.012156932716522
-0.01314338070442
-0.013969601473602
0.094916063499476
0.09230113234712
0.089306122057774
0.086344967366881
0.083513224150385
0.080747684911246
0.077975957447564
0.075171792357849
0.072342658137136
0.069503309986638
0.066662674499517
0.063823913845005
0.060988325989037
0.058157589703465
0.055334051123699
0.05252035532798
0.049719163655915
0.046933059983678
0.044164569722982
0.041416234630845
0.038690696920543
0.035990742787314
0.033319300370963
0.030679406304882
0.028074175998098
0.025506753999291
0.022980334503333
0.020498077571252
0.018063099424767
0.015678420725191
0.013346970155466
0.011071513553607
0.0088547338032274
0.0066990755498131
0.004606951121374
0.0025804075406646
0.00062167025019659
-0.0012677179952956
-0.0030855585842187
-0.004831169581792
-0.0065020029653646
-0.0080989651826171
-0.0096181699945509
-0.011063518009376
-0.012427349903303
-0.013719082680598
-0.014919944552294
-0.016045413644213
-0.017029382364849
-0.017837075792565
0.098989511645959
0.096169941321386
0.092900416650497
0.089682284918173
0.086621198437618
0.083635042472932
0.080638136981892
0.077601998090028
0.074536912341772
0.07146040040647
0.068382531563823
0.065306591273336
0.062233901598414
0.059166430042032
0.056106985256043
0.053058681744725
0.050024596975245
0.047007690482867
0.04401084190887
0.041036939109954
0.038088974026003
0.035170094159894
0.032283602606875
0.029432923372402
0.026621568334516
0.023853087631676
0.021131095010692
0.018459171926851
0.015840851006027
0.013279565132084
0.01077864768941
0.0083412568529856
0.0059704571983972
0.0036690511961845
0.0014398103804862
-0.00071490704071199
-0.0027925214391164
-0.0047912475895776
-0.0067085003019342
-0.0085435095165932
-0.01029320993119
-0.011958776318246
-0.013535406566711
-0.015028032429714
-0.016427146548317
-0.017744645659208
-0.018957943122892
-0.020087231854997
-0.021055450605689
-0.021828940981527
0.10330336294037
0.10027291533022
0.096719161784639
0.093237111436911
0.089939229186541
0.086723661811899
0.083490992123861
0.08021074117906
0.076896650668902
0.073569346973955
0.070240008264521
0.066911945561362
0.063586535180996
0.060266162403398
0.056954229999292
0.053654421314748
0.050370312862167
0.047105325403673
0.043862787395555
0.040646031425149
0.037458496992557
0.034303788168654
0.031185675128753
0.028108060680417
0.025074945469653
0.022090377040774
0.019158477743916
0.016283341280184
0.013469006228731
0.010719413491011
0.0080383856427677
0.0054295642205352
0.0028964673670911
0.00044234854240457
-0.0019296041410462
-0.0042166261011147
-0.0064157451104774
-0.0085248373495417
-0.01054090725601
-0.012463004303733
-0.014287520284714
-0.016015846350801
-0.017642170170698
-0.019172577235736
-0.020595355241492
-0.021925419603463
-0.023135589912134
-0.024251961955683
-0.025188237410047
-0.025916246212032
0.10784558550792
0.10460217357293
0.10075618192047
0.097004879513194
0.093465584083617
0.090013732045362
0.086535782203548
0.083000318868894
0.079425278107192
0.075834491529707
0.07224009782869
0.068645355183165
0.065051776917704
0.061462343128182
0.057881225381212
0.054312806859683
0.050761266630406
0.047230586551926
0.043724646505605
0.04024732849879
0.036802624884692
0.033394701043248
0.030027899732678
0.026706710493486
0.023435734529962
0.020219623347707
0.017063114542365
0.013970923361423
0.010947702691179
0.0079980144279084
0.0051262741862609
0.0023367152934213
-0.00036660794434808
-0.0029798769466193
-0.0054994255036425
-0.0079219486099571
-0.010244072085251