/*--------------------------------*- C++ -*----------------------------------*\
| =========                 |                                                 |
| \\      /  F ield         | OpenFOAM: The Open Source CFD Toolbox           |
|  \\    /   O peration     | Version:  2112                                  |
|   \\  /    A nd           | Website:  www.openfoam.com                      |
|    \\/     M anipulation  |                                                 |
\*---------------------------------------------------------------------------*/
FoamFile
{
    version     2.0;
    format      ascii;
    arch        "LSB;label=32;scalar=64";
    class       surfaceScalarField;
    location    "4";
    object      phi;
}
// * * * * * * * * * * * * * * * * * * * * * * * * * * * * * * * * * * * * * //

dimensions      [0 3 -1 0 0 0 0];

oriented        oriented;

internalField   nonuniform List<scalar> 
43645
(
0.39512680803658
-7.9350090446353e-06
0.39514988640189
-2.3078408126907e-05
0.39518745634657
-3.7569990971392e-05
0.39523888887664
-5.1432578034608e-05
0.39530357521462
-6.4686386378742e-05
0.39538094467337
-7.7369507042947e-05
0.39547046897181
-8.9524346244552e-05
0.39557164436007
-0.00010117543558723
0.39568396908018
-0.00011232476680898
0.39580695323606
-0.00012298420210465
0.39594015310945
-0.00013319991901101
0.39608322256072
-0.00014306949647633
0.39623592310378
-0.0001527005877014
0.39639812028789
-0.00016219722837658
0.39656970253004
-0.00017158228587845
0.3967505445807
-0.00018084209406289
0.39694038746541
-0.00018984292759497
0.39713889888057
-0.00019851145777416
0.39734555282402
-0.00020665398557965
0.39755985138601
-0.00021429860388622
0.39778105643081
-0.00022120508625439
0.39800862365846
-0.00022756726891904
0.39824160203189
-0.00023297841428862
0.39847958323119
-0.00023798124001343
0.39872142779401
-0.00024184460314481
0.39896725922979
-0.00024583147599152
0.39921547679538
-0.00024821760542399
0.39946716097534
-0.00025168421920091
0.39971901848954
-0.00025185755223307
-0.00025517031153045
0.3999741887626
0.37294994185664
-1.5322187344251e-05
0.37297161750917
-4.4754127389974e-05
0.37300713919836
-7.3091748207752e-05
0.37305593070141
-0.0001002241493424
0.37311742692234
-0.00012618267507194
0.37319110062676
-0.00015104327858299
0.37327646785759
-0.00017489164335403
0.37337306796213
-0.00019777560572011
0.37348043804752
-0.0002196949169858
0.3735981228927
-0.00024066911146914
0.37372571265936
-0.00026078974910109
0.37386289597223
-0.00028025287223888
0.37400946799948
-0.00029927267713413
0.3741653237681
-0.00031805305873552
0.37433037956326
-0.00033663814210288
0.37450454103005
-0.00035500362156452
0.37468758431701
-0.0003728862746637
0.37487920732333
-0.00039013452395967
0.37507890374261
-0.00040635046418779
0.37528618681749
-0.00042158173796083
0.37550033422932
-0.0004353525568176
0.37572082554531
-0.00044805864357879
0.37594673437656
-0.00045888730379674
0.37617765961628
-0.00046890653799761
0.37641245199141
-0.00047663703616287
0.37665121381801
-0.00048459336052909
0.37689235523401
-0.0004893590790113
0.37713697574131
-0.00049630478338692
0.37738186003059
-0.00049674189612959
-0.00050349148253076
0.37763018114555
0.3520180766347
-2.2501366771439e-05
0.35203906146035
-6.5739025945253e-05
0.35207336195275
-0.00010739231396252
0.35212046494806
-0.00014732721764307
0.35217986672729
-0.00018558452637685
0.35225109567445
-0.0002222722969785
0.35233371983341
-0.00025751587251135
0.35242732829194
-0.00029138413367688
0.35253150542555
-0.00032387211903929
0.35264584062409
-0.0003550043777976
0.35276996663591
-0.00038491582774516
0.35290361409158
-0.00041390039412729
0.35304661915543
-0.00044227780627109
0.35319891696438
-0.00047035093241692
0.35336046143238
-0.00049818267394194
0.35353119605805
-0.00052573831061974
0.35371093123487
-0.00055262151403101
0.35389940022949
-0.0005786035807869
0.35409612064176
-0.00060307093790785
0.35430063217816
-0.00062609333558525
0.35451221548875
-0.00064693592794994
0.35473037134662
-0.00066621456189125
0.35495415209817
-0.00068266811516663
0.3551831884154
-0.00069794291504671
0.3554162680766
-0.00070971675662569
0.35565356174526
-0.00072188708853831
0.35589333690286
-0.00072913429548045
0.35613687945205
-0.00073984739079908
0.35638064339909
-0.00074050589889914
-0.00075107735537908
0.3566282292143
0.33226097602937
-2.9433497589496e-05
0.33228127634729
-8.603940856285e-05
0.33231449342059
-0.00014060945258605
0.33236016461436
-0.00019299847657985
0.33241784194744
-0.00024326192383991
0.33248711154629
-0.00029154195948032
0.33256759847606
-0.00033800286494577
0.33265894703811
-0.00038273275767339
0.33276079473932
-0.00042571988121634
0.33287278277962
-0.00046699247840251
0.33299459479694
-0.00050672790438875
0.33312601256809
-0.00054531822399633
0.33326692311272
-0.00058318840866112
0.33341731245356
-0.00062074033049829
0.33357718147176
-0.00065805174847518
0.33374651926642
-0.00069507616122256
0.33392517535685
-0.00073127765958249
0.33411292547006
-0.00076635374886151
0.33430931468543
-0.00079946020743078
0.33451391573022
-0.00083069443443494
0.33472600529907
-0.00085902555023857
0.33494510877997
-0.0008853180962696
0.3351702398066
-0.00090779919474439
0.33540107656755
-0.00092877972910008
0.33563631496077
-0.00094495520251207
0.335876232979
-0.00096180515970401
0.33611888851446
-0.00097178988351887
0.3363658496595
-0.00098680858799727
0.33661310434406
-0.00098776063345241
-0.0010029619513348
0.33686498888793
0.31361274753855
-3.6123715311143e-05
0.31363238580325
-0.00010567773561516
0.31366456993866
-0.00017279365091087
0.31370889900495
-0.00023732760558595
0.31376498738333
-0.00029935036411074
0.31383248453908
-0.00035903917638377
0.3139110791732
-0.000416597559161
0.31400047809254
-0.0004721317363526
0.31410037879749
-0.00052562064440872
0.31421048049288
-0.00057709423129657
0.31433052405731
-0.00062677152522149
0.31446035117683
-0.0006751453992149
0.31459991140798
-0.00072274869439715
0.3147492563383
-0.00077008531480154
0.3149084490139
-0.00081724447700413
0.31507753914101
-0.00086416634079188
0.3152564267486
-0.00091016531867847
0.31544493737293
-0.00095486442440395
0.31564264521684
-0.00099716810172476
0.31584915560354
-0.0010372048713991
0.31606373841708
-0.0010736084133575
0.31628594416675
-0.0011075238955857
0.31651473695694
-0.0011365920340517
0.31674984852729
-0.0011638913488103
0.31698985278003
-0.0011849595042235
0.31723517075685
-0.0012071231859149
0.31748359156538
-0.0012202107411909
0.31773705780721
-0.0012402748787794
0.31799095546056
-0.0012416583338539
-0.0012625169595185
0.31825051041918
0.29601113779528
-4.2559708629541e-05
0.29603008211878
-0.00012462212022684
0.29606118538657
-0.00020389698028685
0.29610411588819
-0.00028025816853437
0.29615855784958
-0.00035379238594335
0.29622423123619
-0.00042471262263846
0.29630089519524
-0.0004932615767272
0.29638832620895
-0.00055956280775048
0.29648628926256
-0.00062358375451786
0.29659454917449
-0.00068535419890021
0.2967129114358
-0.00074513384095963
0.29684128529481
-0.00080351931188416
0.29697969065239
-0.00086115410440393
0.29712825375899
-0.00091864847313585
0.297287109395
-0.00097610016357763
0.29745637823195
-0.0010334352277732
0.29763602047359
-0.0010898076092935
0.29782592212276
-0.0011447661222095
0.29802569986578
-0.0011969458924764
0.29823500582914
-0.00124651088237
0.2984531185826
-0.0012917212136886
0.29867962318325
-0.0013340285432024
0.29891344066851
-0.0013704095657126
0.29915436926224
-0.001404819989252
0.29940085359548
-0.001431443883795
0.29965349761058
-0.0014597672478528
0.29990976435001
-0.001476477527243
0.30017203862459
-0.001502549199909
0.30043497094047
-0.0015045906945196
-0.0015323822047383
0.30070483613808
0.2793973872497
-4.8712496106935e-05
0.27941555729982
-0.0001427922311396
0.27944545236001
-0.00023379210164387
0.27948681551822
-0.00032162138762035
0.27953940657351
-0.00040638350115454
0.27960302167257
-0.00048832778079765
0.27967749667086
-0.00056773663290723
0.27976268383166
-0.00064475002555856
0.27985842137822
-0.00071932135678857
0.27996454611262
-0.00079147898811736
0.28008093632792
-0.00086152410970163
0.2802075785082
-0.00093016154475043
0.2803445741565
-0.00099814980390142
0.28049213644855
-0.0010662108156092
0.28065048464984
-0.0011344484139608
0.2808198220249
-0.0012027726513282
0.28100017820041
-0.001270163832098
0.28119150900863
-0.0013360969773231
0.2813934795825
-0.001398916512224
0.28160579951458
-0.0014588308601594
0.28182775636806
-0.0015136781120566
0.2820589795853
-0.0015652518054375
0.28229834238333
-0.0016097724081035
0.28254573035635
-0.0016522080069994
0.2827994504598
-0.0016851640315557
0.28306033267511
-0.0017206495080523
0.28332547102075
-0.0017416159175398
0.28359774880303
-0.0017748270268549
0.28387101018745
-0.0017778521219442
-0.0018140863428329
0.28415271427943
0.26371603902931
-5.4542132826375e-05
0.2637333209393
-0.00016007420148981
0.26376182399774
-0.00026229522074659
0.26380137046485
-0.00036116791507181
0.26385179992623
-0.00045681302187643
0.26391298951363
-0.00054951742671439
0.26398485653862
-0.00063960371516044
0.26406733439354
-0.00072722793683459
0.26416034105273
-0.00081232807095005
0.26426379241301
-0.0008949304024386
0.26437764638483
-0.00097537813409972
0.26450197320162
-0.0010544884132105
0.26463696200226
-0.0011331386547224
0.26478291830264
-0.0012121671653585
0.26494015192233
-0.0012916820815901
0.2651089569233
-0.0013715776995804
0.26528944395454
-0.0014506509093292
0.2654816516848
-0.0015283047531402
0.26568530839267
-0.0016025732645416
0.26590019452973
-0.0016737170414729
0.26612562938009
-0.0017391130057565
0.26636129925616
-0.0018009217249375
0.26660606909703
-0.0018545422916884
0.26685990327295
-0.0019060422259702
0.26712100546331
-0.0019462662644613
0.26739044635099
-0.0019900904388178
0.26766492194907
-0.0020160915583662
0.26794791443565
-0.0020578195561569
0.26823241367033
-0.0020623513976586
-0.0021088211908347
0.26852714847407
0.24891475252704
-6.0002026997505e-05
0.24893101231632
-0.00017633405080331
0.2489579053237
-0.00028918828839528
0.24899533634713
-0.00039859899843634
0.24904322814419
-0.00050470487785105
0.24910154151162
-0.00060783085222537
0.24917027811777
-0.00070834037811144
0.24924945576983
-0.00080640564477159
0.24933907552336
-0.00090194787892591
0.24943913623211
-0.00099499116468392
0.24954968042251
-0.0010859223764327
0.24967086854558
-0.0011756765872849
0.2498029842613
-0.0012652544198668
0.24994643346927
-0.0013556164219033
0.2501016251183
-0.0014468737776682
0.25026895478266
-0.0015389074103083
0.25044862428136
-0.0016303204530059
0.25064076439061
-0.0017204449068981
0.25084517777855
-0.0018069866957843
0.25106172239062
-0.0018902616966322
0.25128977854545
-0.0019671692026625
0.25152907703761
-0.0020402202592323
0.25177854364265
-0.0021040089380575
0.25203814681453
-0.0021656454394927
0.25230610863887
-0.0022142281298108
0.25258368343553
-0.0022676652770032
0.25286721185872
-0.0022996200226044
0.25316089510459
-0.0023515028429892
0.2534567758532
-0.0023582321855255
-0.0024168784304584
0.25376483305026
0.23494412973043
-6.504425407908e-05
0.23495922556741
-0.00019142994728149
0.2349842785183
-0.00031424129896977
0.23501927641418
-0.00043359695367933
0.23506422549232
-0.00054965401432035
0.23511917116917
-0.00066277658661947
0.23518420067559
-0.00077336994076488
0.23525941790622
-0.0008816229307551
0.23534490948577
-0.00098743951236485
0.23544076048925
-0.0010908422211094
0.23554710209535
-0.0011922640338942
0.2356641887749
-0.0012927633172761
0.23579240210986
-0.0013934678036387
0.23593225125748
-0.0014954656174896
0.23608424711468
-0.0015988696812649
0.23624889131857
-0.0017035516599054
0.23642648203347
-0.0018079112121705
0.23661725399288
-0.0019112169101065
0.23682109435093
-0.002010827096329
0.23703795881537
-0.0021071262033532
0.23726730257746
-0.0021965130059297
0.23750892174679
-0.0022818394697567
0.23776183547383
-0.0023569227053744
0.23802600205545
-0.0024298120616315
0.2382997857776
-0.0024880118917082
0.2385844257238
-0.0025523052633608
0.23887627134257
-0.0025914656808401
0.23917973468084
-0.0026549662205342
0.23948684160211
-0.0026653391442588
-0.0027382173107139
0.23980818044165
0.22175755069411
-6.962521417444e-05
0.2217713433435
-0.00020522265547855
0.22179433204227
-0.00033723005669465
0.22182658549679
-0.00046585046683338
0.22186819222246
-0.0005912607976093
0.22191928095756
-0.0007138653785862
0.22198002334034
-0.00083411237912067
0.2220506082023
-0.00095220784744571
0.22213120744872
-0.0010680388120347
0.22222199277667
-0.0011816276014131
0.22232318445854
-0.0012934557665098
0.22243513110615
-0.0014047100147257
0.22255831311903
-0.0015166498647142
0.22269334408361
-0.0016304966294447
0.22284083910697
-0.00174636475039
0.22300140895205
-0.0018641215501001
0.22317545445797
-0.0019819567617063
0.22336332457757
-0.002099087072869
0.22356500243959
-0.00221250500017
0.22378055854455
-0.0023226823499088
0.22400952900506
-0.0024254835068593
0.22425181491426
-0.0025241254193758
0.22450651734108
-0.0026116251716053
0.2247736738211
-0.0026969685812561
0.22505177780022
-0.0027661159095345
0.22534202980903
-0.0028425573111836
0.22564107345866
-0.0028905093686311
0.22595305346763
-0.0029669462673278
0.2262704887823
-0.0029827744948463
-0.0030717722748809
0.22660404370734
0.20931101321259
-7.3706531845322e-05
0.20932338096975
-0.00021759047050167
0.20934410558507
-0.00035795473002114
0.20937333335399
-0.00049507829346608
0.20941123188069
-0.00062915938102961
0.20945800986198
-0.00076064341591926
0.20951391962574
-0.00089002219765939
0.20957923181125
-0.0010175200869361
0.20965420118843
-0.00114300824175
0.20973908401472
-0.0012665104793815
0.20983418788677
-0.0013885596886633
0.2099399540432
-0.0015104762203986
0.21005695998981
-0.0016336558589361
0.2101859217813
-0.0017594584677746
0.21032755703341
-0.0018880000477378
0.21048258443933
-0.0020191490006485
0.21065151009941
-0.0021508824649038
0.21083480076896
-0.0022823777851145
0.21103254662164
-0.0024102508941924
0.2112449421635
-0.0025350779328838
0.2114716214517
-0.0026521628349448
0.21171261578272
-0.0027651197902786
0.21196711362596
-0.0028661230536163
0.2122353090975
-0.0029651640917083
0.21251576493946
-0.003046571789382
0.21280980476938
-0.0031365971791755
0.21311425507577
-0.0031949597120684
0.21343313793833
-0.0032858291664396
0.2137593737386
-0.0033090103296067
-0.0034162588191183
0.21410386024524
0.19756298785481
-7.7257910609094e-05
0.19757383472874
-0.00022843740115092
0.19759213261719
-0.00037625267532311
0.19761810119593
-0.00052104692880856
0.19765198226233
-0.00066304050309852
0.1976940592887
-0.00080272049732634
0.19774466000504
-0.00094062296782906
0.19780413138017
-0.0010769915151706
0.19787280616135
-0.0012116830746273
0.19795102101738
-0.0013447253863199
0.19803916699063
-0.0014767057112695
0.19813777295182
-0.0016090822301514
0.19824750754559
-0.0017433904996871
0.19836918289443
-0.0018811338628711
0.19850361372398
-0.0020224309219923
0.19865162280295
-0.0021671581237426
0.19881382118938
-0.0023130808939955
0.19899079432649
-0.0024593509645029
0.19918274683507
-0.0026022034436992
0.1993900043218
-0.0027423354603403
0.19961231606295
-0.0028744746155906
0.19984985899897
-0.0030026627657601
0.20010193265478
-0.0031181967477479
0.20036890948662
-0.0032321409619707
0.20064944641025
-0.003327108750306
0.20094503680013
-0.0034321876064411
0.20125264636316
-0.0035025693112862
0.2015763646398
-0.0036095474786336
0.20190932810758
-0.0036419738307481
-0.003769902808265
0.20226297206039
0.18647427847006
-8.0259063295603e-05
0.18648353858753
-0.00023769757401675
0.18649929319313
-0.00039200733646029
0.18652182970097
-0.00054358349198927
0.18655145789103
-0.00069266874762841
0.18658852922137
-0.00083979188158134
0.18663343975315
-0.00098553355236794
0.18668660531756
-0.0011301571316965
0.18674842949331
-0.0012735073011423
0.18681932210666
-0.0014156180497102
0.18689975074933
-0.0015571344025047
0.18699032418251
-0.0016996557111669
0.18709179410784
-0.0018448604713316
0.18720505935781
-0.0019943991585149
0.18733102375226
-0.0021483953606114
0.18747060712698
-0.0023067415421361
0.1876245213881
-0.0024669951973588
0.1877934680126
-0.0026282976309238
0.18797776877963
-0.0027865042513355
0.18817788481564
-0.0029424515367863
0.18839369306713
-0.003090282906294
0.18862552794375
-0.0032344976815812
0.18887282228436
-0.0033654911263776
0.18913613631588
-0.0034954550315615
0.18941427014032
-0.0036052426116231
0.18970887685323
-0.0037267943561996
0.19001714196993
-0.0038108344635044
0.19034322366121
-0.0039356292046292
0.19068056151041
-0.0039793117123306
-0.0041302735886751
0.19104093225564
0.17600789016403
-8.2700518481147e-05
0.17601552969609
-0.00024533715999229
0.17602867525507
-0.00040515294955052
0.17604767505326
-0.00056258334412885
0.17607289926222
-0.00071789300973077
0.17610475905484
-0.00087165172685876
0.17614370999434
-0.0010244845434617
0.17619022769382
-0.0011766748821645
0.1762447778167
-0.0013280574737455
0.17630783437967
-0.0014786746617467
0.17637993268719
-0.0016292327576923
0.17646175078803
-0.0017814738590192
0.17655411269832
-0.0019372224271878
0.17665799172186
-0.0020982782270404
0.17677436998292
-0.0022647736652458
0.17690425331807
-0.0024366249204221
0.17704844658365
-0.0026111885047411
0.17720776093764
-0.0027876120264375
0.17738263326906
-0.0029613766230328
0.17757366064256
-0.0031334789504279
0.17778085542874
-0.0032974777314471
0.17800471682045
-0.003458359112246
0.17824483042292
-0.0036056047666391
0.17850195154941
-0.0037525761958572
0.17877506807782
-0.0038783591765888
0.17906598745031
-0.0040177137651157
0.17937218894248
-0.0041170359906384
0.17969789901915
-0.0042613393152885
0.18003677381625
-0.0043181865409436
-0.0044947058203653
0.18040120601384
0.1661289051172
-8.4583705255579e-05
0.16613492213044
-0.00025135422561951
0.16614544448671
-0.00041567535842895
0.16616087322493
-0.0005780121348471
0.16618163031739
-0.00073865015394552
0.16620817741224
-0.00089819887303204
0.16624101964958
-0.0010573268311238
0.16628068220205
-0.0012163374844077
0.16632768246984
-0.0013750577901282
0.16638254848959
-0.001533540729473
0.16644587266885
-0.0016925569836037
0.16651839001223
-0.0018539912484546
0.16660098375484
-0.0020198162145038
0.16669468628065
-0.0021919807970431
0.16680054463757
-0.0023706320650345
0.16691963650046
-0.0025557168258084
0.16705284870444
-0.0027444007499732
0.16720109178011
-0.0029358551431263
0.16736491123525
-0.003125196118047
0.16754503673562
-0.0033136044905635
0.1677416186834
-0.003494059717889
0.16795532301966
-0.0036720634871479
0.16818590327218
-0.0038361850566724
0.16843431108236
-0.0040009840435257
0.16869974386388
-0.0041437919943158
0.16898420894578
-0.0043021788829606
0.16928540609347
-0.0044182331726933
0.16960801297535
-0.0045839462303802
0.16994527970967
-0.0046554533058422
-0.0048606809718876
0.17031125482834
0.15680436535037
-8.5920413630748e-05
0.15680878821868
-0.00025577714481695
0.15681672275535
-0.00042360994625902
0.15682861421664
-0.00058990364720046
0.15684492726126
-0.00075496324894315
0.15686616425746
-0.00091943591920215
0.15689286945056
-0.0010840320732539
0.15692560672025
-0.0012490748026038
0.15696493415621
-0.001414385273458
0.15701142234654
-0.0015800289665753
0.15706570853902
-0.0017468432216228
0.15712857111588
-0.0019168538702734
0.1572009375654
-0.0020921827077406
0.15728388283683
-0.0022749261116961
0.1573785030727
-0.002465252342922
0.15748593162217
-0.0026631454169509
0.15760712434638
-0.0028655935147384
0.15774307778179
-0.0030718086188795
0.15789443500599
-0.0032765533815375
0.15806205033302
-0.0034812198568135
0.1582462078103
-0.0036782172333656
0.15844773963856
-0.0038735953535804
0.15866657084635
-0.004055016301558
0.15890385995297
-0.0042382731871577
0.15915898610149
-0.004398918178566
0.15943424770924
-0.0045774405260207
0.15972739452778
-0.0047113800248536
0.16004381262614
-0.0049003643609786
0.16037622450548
-0.0049878652146166
-0.0052242200881977
0.16073976359048
0.14800316210044
-8.6731630683974e-05
0.14800604661128
-0.0002586617052844
0.14801147422663
-0.00042903761157591
0.14801992532135
-0.00059835479178327
0.14803189784235
-0.00076693581914224
0.148047924785
-0.00093546291062706
0.14806857896947
-0.0011046863055787
0.14809445202832
-0.0012749479087573
0.14812613152912
-0.0014460648204612
0.1481642187761
-0.0016181162591588
0.14820938312594
-0.0017920076158741
0.14826243212783
-0.0019699029160044
0.14832432153624
-0.0021540721588172
0.14839615139522
-0.0023467560128676
0.14847904907925
-0.0025481500680422
0.14857418614678
-0.0027582825252474
0.14868257176508
-0.0029739791727715
0.14880527254303
-0.0031945094363882
0.1489430158244
-0.0034142967015065
0.14909676657966
-0.0036349706505959
0.14926693392452
-0.0038483846158168
0.14945451150815
-0.0040611729747574
0.14965959061197
-0.0042600954419325
0.14988354797641
-0.0044622305879782
0.15012592529317
-0.0046412955304422
0.1503893285212
-0.0048408437885709
0.1506716065772
-0.0049936581135668
0.15097861811788
-0.0052073759327489
0.15130320525894
-0.0053124523837758
-0.005581514270171
0.15166049941146
0.13969593183462
-8.7046250970657e-05
0.13969735649408
-0.00026008641371701
0.13970039698551
-0.00043207815241398
0.13970555989263
-0.00060351774817866
0.13971336688512
-0.0007747428602091
0.13972437142316
-0.00094646749674118
0.13973916447529
-0.0011194794048569
0.13975835467477
-0.0012941381547513
0.13978254829802
-0.0014702584891484
0.13981236551887
-0.0016479335247714
0.13984849543295
-0.0018281375735781
0.13989176014222
-0.0020131676682978
0.13994312807686
-0.0022054401353802
0.14000370558586
-0.0024073335633001
0.14007463380124
-0.0026190783238428
0.14015710246109
-0.0028407512251697
0.14025215972802
-0.0030690364788548
0.14036092056604
-0.0033032703133427
0.14048418528463
-0.0035375614581747
0.14062300624858
-0.0037737916525136
0.14077791082909
-0.0040032892334595
0.14095003913679
-0.0042333013194938
0.14113963949335
-0.0044496958345958
0.1413483015526
-0.0046708926831011
0.14157573175973
-0.0048687257721971
0.14182482202622
-0.0050899340889303
0.14209362777824
-0.0052624638975446
0.14238828206456
-0.0055020302491613
0.14270195765954
-0.0056261280056826
-0.0059288258398951
0.14304926920153
0.13185495745983
-8.6899026406298e-05
0.13185502005408
-0.00026014905740591
0.1318558242097
-0.00043288235808634
0.13185789538193
-0.00060558897029595
0.13186177007688
-0.00077861760427852
0.13186801267911
-0.00095271014748329
0.13187722286823
-0.0011286896414994
0.13189001645266
-0.0013069317859723
0.13190700858084
-0.0014872506630287
0.13192882664487
-0.00166975163377
0.13195616759881
-0.0018554785713822
0.13198985237081
-0.0020468524835174
0.1320308477566
-0.0022464355633466
0.13208024535526
-0.0024567312036372
0.13213918660478
-0.0026780196140861
0.13220885405319
-0.0029104187139156
0.13229032794559
-0.0031505104107344
0.1323847399211
-0.0033976823280735
0.13249296173665
-0.0036457833121371
0.1326160958577
-0.0038969258117877
0.13275479042331
-0.0041419838365044
0.13291030157771
-0.0043888125111718
0.13308303078985
-0.0046224250831321
0.13327474388664
-0.004862605815981
0.13348530160593
-0.0050792835263876
0.13371784103475
-0.0053224735517785
0.13397074565537
-0.0055153685502428
0.13425042076885
-0.0057817053926954
0.13455048806407
-0.0059261953276939
-0.0062626097563212
0.13488427195325
0.12445407449118
-8.6327224515581e-05
0.12445288475345
-0.00025895937125597
0.12445162827141
-0.00043162592859592
0.12445084012993
-0.00060480088120608
0.12445106243872
-0.00077883996466397
0.12445286095599
-0.00095450871561583
0.12445683520936
-0.0011326639446731
0.12446360046953
-0.0013136970951478
0.12447377378488
-0.0014974240262807
0.12448798067096
-0.001683958566993
0.12450691562949
-0.0018744135759993
0.12453138208498
-0.0020713189844287
0.12456233147588
-0.002277384998703
0.12460081701872
-0.0024952167904057
0.1246479711663
-0.0027251738046862
0.12470493732822
-0.0029673849184294
0.1247728304126
-0.0032184035368625
0.12485275220933
-0.0034776041662002
0.12494566401954
-0.0037386951629273
0.12505265488521
-0.0040039167177374
0.12517452784073
-0.0042638568314838
0.12531258627913
-0.004526870988743
0.12546743103006
-0.0047772698723705
0.12564093559668
-0.0050361104205406
0.12583310523504
-0.0052714532015817
0.1260472341009
-0.0055366024536191
0.12628185335747
-0.0057499878409549
0.1265439894528
-0.0060438415201688
0.12682778827682
-0.0062099941806789
-0.0065808884536038
0.12714606694447
0.1174685890048
-8.5372499284936e-05
0.11746626505113
-0.0002566354732609
0.11746314010111
-0.00042850103558171
0.11745974900061
-0.0006014098376206
0.11745663448283
-0.00077572550303247
0.11745435514184
-0.00095222942993761
0.11745349909917
-0.0011318079563116
0.11745467124239
-0.0013148692917999
0.11745848394421
-0.001501236780554
0.11746555598393
-0.0016910306583643
0.11747657222482
-0.0018854298676694
0.1174923055455
-0.0020870523551725
0.11751367850816
-0.0022987580106386
0.11754168519485
-0.0025232235257212
0.11757744088999
-0.0027609295477105
0.11762201864988
-0.0030119627255799
0.11767657660887
-0.003272961542381
0.11774212990642
-0.0035431575096451
0.11781977174264
-0.003816337044294
0.11791046971923
-0.0040946147388431
0.11801527015774
-0.0043686573137255
0.11813535380312
-0.0046469546771915
0.11827167907212
-0.0049135951836537
0.11842605557718
-0.0051904869672733
0.11859884719674
-0.0054442448620871
0.11879344372335
-0.0057311990203151
0.11900801902424
-0.0059645631806916
0.11925049986926
-0.0062863224021841
0.1195136901966
-0.006473184542472
-0.0068847954365485
0.1198175971435
0.11087519922559
-8.4086879290789e-05
0.11087187665109
-0.00025331295963246
0.11086709586757
-0.00042372031448613
0.11086137336065
-0.00059568739310273
0.1108552540456
-0.00076960624959046
0.11084928752314
-0.00094626296834266
0.1108440469974
-0.0011265674904144
0.11084011923191
-0.0013109415854849
0.11083810345071
-0.0014992210575615
0.1108386047789
-0.001691532044232
0.110842286055
-0.0018891112005638
0.11084987629182
-0.002094642648358
0.11086225221928
-0.0023111339935888
0.11088033811344
-0.002541309474957
0.11090522138395
-0.0027858128723383
0.11093789096141
-0.0030446323567046
0.11097955091164
-0.003314621545217
0.1110310891774
-0.0035946958275146
0.11109378255924
-0.0038790304770617
0.11116835274458
-0.0041691849745128
0.11125623763379
-0.0044565422519325
0.11135818452587
-0.0047489016175942
0.11147585464414
-0.0050312653489147
0.11161037269828
-0.0053250050680878
0.11176331931502
-0.0055971915246813
0.11193728511743
-0.0059051648686106
0.1121318383901
-0.0061591164983441
0.11235440213944
-0.0065088861958877
0.11259343344058
-0.0067122158859894
-0.0071751667358676
0.11288380469309
0.10465191262687
-8.2533595199764e-05
0.10464775508066
-0.00024915547903037
0.10464154848166
-0.00041751378244482
0.1046337902962
-0.00058792927441967
0.10462501320126
-0.0007608292208279
0.1046157517235
-0.00093700155595895
0.10460656422177
-0.0011173800534261
0.10459802460041
-0.0013024020281449
0.10459073378513
-0.0014919303058468
0.10458529330554
-0.0016860916275766
0.104582330572
-0.0018861485296049
0.10458250650069
-0.0020948186389824
0.10458661558635
-0.0023152431407946
0.10459549761922
-0.0025501915685719
0.10461018713691
-0.0028005024502532
0.1046315942896
-0.0030660395686383
0.10466094651363
-0.0033439738278155
0.10469900519406
-0.0036327545653432
0.10474723407424
-0.0039272594138035
0.10480604347052
-0.0042279944258947
0.10487739378807
-0.0045278926234261
0.10496128752222
-0.0048327954039459
0.10506064149684
-0.0051306193746576
0.10517474515339
-0.005439108774691
0.10530820578536
-0.0057306522069823
0.10545899358707
-0.0060559527207873
0.10563461395914
-0.0063347369217988
0.10583533168074
-0.0067096039688757
0.10606139721498
-0.0069382814720192
-0.0074455652340696
0.1063317956532
0.09877790733102
-8.0722718662041e-05
0.098773084507052
-0.00024433272352709
0.098765610156713
-0.00041003950167786
0.098756127856682
-0.00057844704397628
0.098745043658034
-0.00074974509123211
0.098732909334007
-0.00092486730069231
0.098720238539474
-0.001104709327149
0.098707566943678
-0.0012897305005368
0.098695506373246
-0.0014798698032429
0.098684687982086
-0.0016752733043229
0.098675733386465
-0.0018771940015117
0.098669244830933
-0.0020883301510001
0.098665909446075
-0.0023119078228906
0.098666455220217
-0.0025507374094691
0.098671808502498
-0.0028058557983803
0.098682790592807
-0.003077021724361
0.098700577344419
-0.0033617606436698
0.098725852281223
-0.0036580295657594
0.098760152442916
-0.0039615596375973
0.098803693985098
-0.004271536029085
0.098858780221884
-0.0045829789190147
0.098924783894633
-0.0048987991338611
0.099005833890012
-0.0052116694250195
0.099099172103406
-0.0055324470426371
0.099213409725424
-0.0058448898838229
0.099338783564862
-0.006181326617179
0.099495680995603
-0.0064916344112894
0.099659039402993
-0.0068729624374172
0.099874619417042
-0.0071538615509097
0.10015022054819
-0.0077211664373428
0.39531485169066
0.0046593370335829
0.39081074610215
0.0045041055512063
0.38646642717276
0.0043443188927475
0.38228664179944
0.0041797853366277
0.3782763697695
0.0040102719932173
0.37444079490345
0.0038355748287968
0.37078519898117
0.0036555958847104
0.36731480483895
0.0034703941038839
0.36403459723024
0.0032802075699057
0.36094915077756
0.0030854464129378
0.35806249156083
0.0028866591764083
0.35537801220471
0.0026844793147369
0.35289844853179
0.0024795636308623
0.35062591464458
0.002272533843974
0.34856198362665
0.0020639309739615
0.34670779571086
0.0018541878705588
0.34506417371751
0.0016436219473376
0.34363172823319
0.0014324454369557
0.34241094130789
0.0012207868771178
0.34140222415211
0.0010087171061995
0.34060594998301
0.0007962741186565
0.34002246159326
0.00058348833784234
0.33965205104633
0.00037041049412151
0.33949488620873
0.00015716478328951
0.33955102573871
-5.6139585197776e-05
0.33982109023115
-0.00027006454916636
0.34030468157968
-0.00048359140613504
0.34100150271511
-0.00069682119447736
0.34191114513078
-0.00090964247546458
0.34303302824805
-0.001121883178328
0.34436635512106
-0.0013333269345875
0.34591007488354
-0.0015437198250296