/*--------------------------------*- C++ -*----------------------------------*\
| =========                 |                                                 |
| \\      /  F ield         | OpenFOAM: The Open Source CFD Toolbox           |
|  \\    /   O peration     | Version:  2112                                  |
|   \\  /    A nd           | Website:  www.openfoam.com                      |
|    \\/     M anipulation  |                                                 |
\*---------------------------------------------------------------------------*/
FoamFile
{
    version     2.0;
    format      ascii;
    arch        "LSB;label=32;scalar=64";
    class       volVectorField;
    location    "4";
    object      U;
}
// * * * * * * * * * * * * * * * * * * * * * * * * * * * * * * * * * * * * * //

dimensions      [0 1 -1 0 0 0 0];

internalField   nonuniform List<vector> 
22000
(
(1.0000017699117 -4.1319329866323e-05 0)
(1.0000420798453 -0.00012046365407991 0)
(1.0001182094307 -0.00019612025256057 0)
(1.0002301968902 -0.00026836974197866 0)
(1.0003770249503 -0.00033735410896099 0)
(1.0005570777082 -0.00040330530013355 0)
(1.0007686926693 -0.00046646061757453 0)
(1.0010104147376 -0.00052695551705937 0)
(1.0012809357515 -0.00058481249160686 0)
(1.0015789978141 -0.00064010741694362 0)
(1.0019033974016 -0.00069307990291661 0)
(1.0022531257149 -0.00074422244906023 0)
(1.0026274344845 -0.00079408373639176 0)
(1.0030258992125 -0.00084320790041333 0)
(1.0034482525969 -0.00089171046053834 0)
(1.0038943036494 -0.00093950530392952 0)
(1.004363560729 -0.00098588538581405 0)
(1.0048553178585 -0.0010305002671396 0)
(1.0053683229186 -0.0010723893300321 0)
(1.0059013353495 -0.00111173761239 0)
(1.0064526026913 -0.0011472630448079 0)
(1.00702091303 -0.001179952738168 0)
(1.0076040728007 -0.0012076557309369 0)
(1.0082008479807 -0.0012333089265565 0)
(1.0088080768742 -0.001253099079117 0)
(1.0094258292997 -0.0012737672731251 0)
(1.0100503687413 -0.0012860177812243 0)
(1.0106845403743 -0.0013041175038324 0)
(1.0113206522636 -0.0013045946397272 0)
(1.0119656726923 -0.0013223115203882 0)
(1.0000009027455 -0.00012140997750411 0)
(1.0000411191082 -0.00035432372342661 0)
(1.0001175559405 -0.00057735022495404 0)
(1.0002301139094 -0.00079062925942544 0)
(1.0003778594044 -0.00099448851763635 0)
(1.0005593119066 -0.0011895579996232 0)
(1.000772907028 -0.0013765243543212 0)
(1.0010172490844 -0.0015557774146334 0)
(1.0012910532339 -0.0017273400129406 0)
(1.0015930798299 -0.0018913856313723 0)
(1.0019221234542 -0.0020486305638078 0)
(1.0022772210204 -0.0022005895593974 0)
(1.0026576495726 -0.002348925632204 0)
(1.0030630814805 -0.0024952341272596 0)
(1.0034932540406 -0.0026398672764999 0)
(1.0039481328 -0.0027826233491733 0)
(1.0044271630768 -0.0029214501562018 0)
(1.0049298909708 -0.0030551793569673 0)
(1.0054547463062 -0.0031807826309518 0)
(1.0060008661135 -0.0032986558026414 0)
(1.0065657437328 -0.003405154022347 0)
(1.0071492316489 -0.0035032832029512 0)
(1.0077475521936 -0.0035868252200896 0)
(1.0083617951949 -0.0036639956074484 0)
(1.0089848946999 -0.0037235769261366 0)
(1.0096225123812 -0.003784820229459 0)
(1.0102620486492 -0.0038215725651305 0)
(1.0109200006186 -0.00387473864251 0)
(1.0115678029758 -0.0038778607534858 0)
(1.0122451561646 -0.0039292457443011 0)
(1.0000009340415 -0.00019761312689539 0)
(1.0000421735553 -0.00057725816747457 0)
(1.0001204694927 -0.00094137803564556 0)
(1.0002356686422 -0.0012901118929538 0)
(1.0003868543212 -0.0016238973655241 0)
(1.0005726250027 -0.0019437063474794 0)
(1.000791507191 -0.0022506423251564 0)
(1.0010421940522 -0.0025453192849049 0)
(1.001323462441 -0.0028277172881286 0)
(1.0016341354601 -0.0030980672632299 0)
(1.0019730391311 -0.0033575447672132 0)
(1.002339292346 -0.0036086905423775 0)
(1.0027322096223 -0.0038542760903528 0)
(1.0031516138741 -0.0040969299040997 0)
(1.0035972619369 -0.0043372140865053 0)
(1.0040693628173 -0.0045748211494545 0)
(1.0045672343365 -0.0048063431285764 0)
(1.0050907986801 -0.0050298010947277 0)
(1.0056379781746 -0.0052399885459595 0)
(1.0062086382682 -0.0054375045370225 0)
(1.0067990489889 -0.0056161530499269 0)
(1.0074108974316 -0.0057811067585193 0)
(1.0080375007719 -0.0059217460533814 0)
(1.0086841516925 -0.006051940802179 0)
(1.0093367921727 -0.0061522971780096 0)
(1.0100114993208 -0.0062555946436085 0)
(1.0106793078047 -0.0063172734581197 0)
(1.0113820490884 -0.0064075065176562 0)
(1.0120519236628 -0.0064129057202933 0)
(1.0127902359564 -0.0065013735716932 0)
(1.0000009419412 -0.00027117258051973 0)
(1.0000431566234 -0.0007927011407185 0)
(1.0001234336346 -0.0012935209239111 0)
(1.0002417035544 -0.0017738204025818 0)
(1.0003971226942 -0.0022341790685374 0)
(1.0005883732703 -0.0026759225034368 0)
(1.0008140705682 -0.0031005654472731 0)
(1.0010730131489 -0.0035089313694886 0)
(1.0013640639938 -0.0039009429535642 0)
(1.001686147027 -0.004276881537357 0)
(1.0020381496767 -0.0046383709446626 0)
(1.0024193207514 -0.0049889658016112 0)
(1.0028290374225 -0.0053325233400233 0)
(1.0032673458286 -0.0056726913146397 0)
(1.0037340263635 -0.0060102036753079 0)
(1.0042296238403 -0.006344638151753 0)
(1.0047532548356 -0.0066711772914449 0)
(1.0053053912653 -0.006987057261391 0)
(1.005883260495 -0.0072847635516517 0)
(1.0064878381774 -0.007565141195035 0)
(1.0071136326 -0.0078191376918838 0)
(1.0077649460872 -0.008054336181701 0)
(1.0084308946049 -0.0082551950556823 0)
(1.0091229249279 -0.0084419742982543 0)
(1.0098169878746 -0.0085859116410165 0)
(1.0105442208067 -0.0087350314127872 0)
(1.0112520443994 -0.0088235867971165 0)
(1.0120188112444 -0.0089553300343543 0)
(1.0127202668895 -0.0089633305141328 0)
(1.0135463949801 -0.0090955745398408 0)
(1.0000009476473 -0.00034213730274226 0)
(1.0000441519558 -0.0010009761887277 0)
(1.0001264833038 -0.0016345299495656 0)
(1.0002479969179 -0.0022430425357962 0)
(1.0004079662594 -0.0028272464990174 0)
(1.0006051982394 -0.0033888295829024 0)
(1.0008384323071 -0.0039297153545817 0)
(1.0011066100668 -0.0044509220934733 0)
(1.0014087139166 -0.0049522891688593 0)
(1.0017438062214 -0.0054341256825451 0)
(1.0021108654718 -0.005898492128091 0)
(1.002509318795 -0.0063499741581501 0)
(1.0029386417551 -0.0067935357707707 0)
(1.0033991821974 -0.0072338688995974 0)
(1.0038907738117 -0.0076718487349813 0)
(1.0044144102228 -0.008106924317235 0)
(1.0049689867586 -0.0085327759604272 0)
(1.005555708501 -0.0089458708723564 0)
(1.0061709307461 -0.0093361815853121 0)
(1.006817070984 -0.0097048694046635 0)
(1.0074863353548 -0.010039582282061 0)
(1.008186440918 -0.010350673761741 0)
(1.008901007341 -0.010616886300959 0)
(1.0096496063339 -0.010865912598533 0)
(1.0103951215723 -0.011057936392918 0)
(1.0111884044653 -0.011258650409759 0)
(1.0119460506975 -0.011377335633667 0)
(1.0127939731939 -0.011557161916406 0)
(1.0135346484062 -0.011568665135716 0)
(1.0144729171073 -0.01175397718986 0)
(1.0000009475754 -0.00041045576400912 0)
(1.0000450311626 -0.0012020071686352 0)
(1.0001292436149 -0.0019643977803346 0)
(1.0002537936429 -0.0026979301857176 0)
(1.0004181098826 -0.0034034906190185 0)
(1.0006211686148 -0.0040831309134604 0)
(1.0008618782009 -0.0047391808565626 0)
(1.0011393707236 -0.0053728424677808 0)
(1.0014527918594 -0.0059838457687487 0)
(1.0018013883434 -0.0065725056102239 0)
(1.0021842690532 -0.0071413096237077 0)
(1.0026010905277 -0.0076959078441523 0)
(1.003051463509 -0.0082424021655358 0)
(1.0035361026085 -0.0087865663972894 0)
(1.0040549262277 -0.0093293761343412 0)
(1.0046094737401 -0.0098701349338768 0)
(1.0051984085438 -0.010400912091612 0)
(1.0058238261689 -0.010917399397203 0)
(1.0064810902603 -0.011406856419183 0)
(1.007174406116 -0.011870784096367 0)
(1.0078932607403 -0.012293147837807 0)
(1.0086495669671 -0.012687367727374 0)
(1.009420260274 -0.01302568939814 0)
(1.0102349452159 -0.013344329853391 0)
(1.0110405289712 -0.013590434024709 0)
(1.0119121156509 -0.013850423359752 0)
(1.0127285670367 -0.014003807607708 0)
(1.0136738727962 -0.014240677017693 0)
(1.0144611860533 -0.0142577335365 0)
(1.0155349767888 -0.014508434764267 0)
(1.0000009381425 -0.00047591626870743 0)
(1.0000456505166 -0.0013952073175779 0)
(1.0001313055563 -0.0022822170326397 0)
(1.0002582947033 -0.0031373130053954 0)
(1.000426239949 -0.003961536758972 0)
(1.0006343328181 -0.0047573096296932 0)
(1.0008816972232 -0.0055273694211381 0)
(1.0011677049448 -0.0062730919616781 0)
(1.0014917068721 -0.0069940720965144 0)
(1.0018531840112 -0.0076906150488205 0)
(1.0022514164162 -0.0083656348006908 0)
(1.0026863584834 -0.0090258841669409 0)
(1.0031577991905 -0.0096786362067981 0)
(1.0036669252411 -0.010330797729268 0)
(1.0042137648637 -0.010983417710708 0)
(1.0048005556088 -0.011635641677785 0)
(1.0054256720198 -0.012277798950458 0)
(1.006092333943 -0.012904799567494 0)
(1.0067946945945 -0.01350100299405 0)
(1.0075391895431 -0.01406830030478 0)
(1.0083120371906 -0.014586563368653 0)
(1.0091302052613 -0.015072518004714 0)
(1.0099626608705 -0.015491097240951 0)
(1.0108509752352 -0.015888241608428 0)
(1.0117232237397 -0.016195998742015 0)
(1.0126831980465 -0.016524967254509 0)
(1.0135653760864 -0.016719133358192 0)
(1.014621964392 -0.017024020579986 0)
(1.0154613961829 -0.017049328476619 0)
(1.0166916315414 -0.017379836788367 0)
(1.0000009166982 -0.00053817025249493 0)
(1.0000458765586 -0.0015795703511933 0)
(1.0001322846771 -0.0025863658516875 0)
(1.0002607429571 -0.0035589991274255 0)
(1.0004311049479 -0.0044986730423933 0)
(1.0006428239785 -0.0054081870674281 0)
(1.0008952877111 -0.0062906906534673 0)
(1.0011881601741 -0.0071477261734156 0)
(1.0015210474119 -0.0079787343654185 0)
(1.0018937219503 -0.0087840005736538 0)
(1.002305682877 -0.0095668708054159 0)
(1.0027572494599 -0.010335242594943 0)
(1.0032484306584 -0.011097608479433 0)
(1.0037809691141 -0.011862064623082 0)
(1.0043550174514 -0.012629715495605 0)
(1.004973637503 -0.013399537410707 0)
(1.005634884553 -0.014159994750422 0)
(1.0063433339878 -0.014905247723289 0)
(1.0070917809966 -0.01561651225279 0)
(1.0078893063937 -0.016296208079054 0)
(1.0087184284219 -0.016919529351734 0)
(1.0096019837065 -0.017506992553855 0)
(1.0104999148032 -0.018015128291153 0)
(1.0114675944329 -0.018501175658883 0)
(1.0124115834864 -0.018879466489013 0)
(1.0134686058825 -0.019288865508377 0)
(1.0144224501132 -0.019531181251675 0)
(1.0156031012342 -0.019916914391892 0)
(1.0165001539114 -0.01995467465699 0)
(1.0179073682445 -0.020382172516179 0)
(1.000000880283 -0.00059678357049663 0)
(1.0000455875274 -0.0017538200170493 0)
(1.0001318323067 -0.0028747576664191 0)
(1.0002604519163 -0.003960126138399 0)
(1.000431569449 -0.0050112966721463 0)
(1.0006449463376 -0.0060314568532568 0)
(1.000900282261 -0.0070241756626944 0)
(1.0011975840129 -0.0079911616272975 0)
(1.0015367599304 -0.008931686220334 0)
(1.0019179239255 -0.0098460108666709 0)
(1.0023408413859 -0.010737927551407 0)
(1.0028062593822 -0.011616533345094 0)
(1.0033144659543 -0.012491583722745 0)
(1.0038678425879 -0.013372415388368 0)
(1.0044667276861 -0.014260169111996 0)
(1.0051151114257 -0.015153660112431 0)
(1.0058107866462 -0.016039389775314 0)
(1.0065597943742 -0.016910762094825 0)
(1.0073536084007 -0.017745663097285 0)
(1.0082040478039 -0.018547068774759 0)
(1.0090900040835 -0.019285238133647 0)
(1.0100402351285 -0.019984546322094 0)
(1.0110056983143 -0.020592807939196 0)
(1.0120558990601 -0.02117887185751 0)
(1.0130749873579 -0.021638136889758 0)
(1.0142350299973 -0.022140853682051 0)
(1.0152646228846 -0.022440122387106 0)
(1.0165797486655 -0.022922475551738 0)
(1.0175383889565 -0.022979608518753 0)
(1.0191405710914 -0.02352411886216 0)
(1.0000008280855 -0.00065128777516508 0)
(1.000044681132 -0.0019165579493834 0)
(1.0001296484859 -0.0031450792388417 0)
(1.0002568315048 -0.0043374851074511 0)
(1.0004266552288 -0.0054953225092264 0)
(1.0006392307046 -0.0066221778576442 0)
(1.0008946139606 -0.007722050079105 0)
(1.0011932024972 -0.0087968168545794 0)
(1.0015352515233 -0.0098455699721004 0)
(1.0019212726247 -0.01086855011641 0)
(1.002351345406 -0.011870015299789 0)
(1.002826716203 -0.012860319091977 0)
(1.0033479950684 -0.013850518606753 0)
(1.0039182939027 -0.014851252839058 0)
(1.0045381584201 -0.015863688882985 0)
(1.0052126255363 -0.016886524193139 0)
(1.0059392311054 -0.017904191865443 0)
(1.0067256243476 -0.018909375742191 0)
(1.0075620134824 -0.019876460544742 0)
(1.0084630063829 -0.020809024512093 0)
(1.0094041961306 -0.021672304957727 0)
(1.0104198106405 -0.022494144209697 0)
(1.0114529140521 -0.023214270516932 0)
(1.0125857495105 -0.023911663366534 0)
(1.0136819887266 -0.024464282385331 0)
(1.0149477846295 -0.025073915922974 0)
(1.0160560029914 -0.025440545710437 0)
(1.0175132945731 -0.026037382464542 0)
(1.0185362101383 -0.026122038344855 0)
(1.020349203675 -0.02680616193052 0)
(1.0000007601321 -0.00070122403872056 0)
(1.0000430863858 -0.0020664035970353 0)
(1.000125504811 -0.003395018385067 0)
(1.0002494177414 -0.0046878268836952 0)
(1.0004155866468 -0.0059465637402352 0)
(1.0006245067455 -0.0071752247431772 0)
(1.0008766283939 -0.008378249040669 0)
(1.0011727812829 -0.0095576898488593 0)
(1.0015136071941 -0.010712458994174 0)
(1.0019000631405 -0.011842786066967 0)
(1.0023325828444 -0.012953422270228 0)
(1.002812969023 -0.014056034138864 0)
(1.00334219245 -0.015163029841661 0)
(1.0039241795005 -0.016286409387656 0)
(1.0045597128892 -0.017427357163618 0)
(1.0052549954046 -0.01858449943885 0)
(1.0060073151279 -0.019740103955695 0)
(1.0068260983977 -0.020886249850622 0)
(1.0077003127797 -0.02199358731931 0)
(1.0086474970484 -0.02306651269535 0)
(1.0096401581945 -0.024064861065139 0)
(1.0107176162267 -0.025020113069464 0)
(1.0118164431776 -0.025863865720653 0)
(1.0130288831037 -0.026684628475898 0)
(1.0142041937324 -0.027344398420986 0)
(1.0155718134383 -0.028073730078661 0)
(1.0167677377323 -0.028523128501142 0)
(1.0183578673667 -0.029248286882321 0)
(1.0194701248943 -0.029379166795379 0)
(1.0214844196964 -0.030219837183577 0)
(1.000000674426 -0.00074617309887344 0)
(1.0000407558495 -0.0022020872371567 0)
(1.0001192621896 -0.0036224324110319 0)
(1.0002379151593 -0.005008108732694 0)
(1.0003978469439 -0.0063610533255879 0)
(1.0005999685702 -0.0076856826805884 0)
(1.0008451536381 -0.008986885727572 0)
(1.0011346948553 -0.010266901345097 0)
(1.0014696542699 -0.011524470529333 0)
(1.001851471633 -0.012759829114488 0)
(1.0022809730647 -0.013978248945177 0)
(1.002760563309 -0.0151927615951 0)
(1.0032916204189 -0.016417172996639 0)
(1.0038789437046 -0.017664898996371 0)
(1.0045235993469 -0.018937138741591 0)
(1.0052330242584 -0.020232498166385 0)
(1.0060043051603 -0.021531037045231 0)
(1.006848743071 -0.022824358234285 0)
(1.0077541381491 -0.024079229635031 0)
(1.0087410712095 -0.025301050852864 0)
(1.0097791393447 -0.026443932845241 0)
(1.0109126272242 -0.027543324580556 0)
(1.0120724894738 -0.028522282270349 0)
(1.013359301855 -0.029479332300533 0)
(1.0146122906358 -0.03026017058226 0)
(1.0160756393389 -0.031123245276508 0)
(1.0173648822824 -0.03167307830308 0)
(1.0190782055018 -0.032539875060768 0)
(1.0202943995055 -0.032737581132398 0)
(1.0225092846204 -0.033756935092827 0)
(1.0000005717582 -0.00078578318833184 0)
(1.0000376717485 -0.0023225228805438 0)
(1.0001108636248 -0.0038254699238634 0)
(1.0002221919893 -0.0052956760092698 0)
(1.0003731828546 -0.0067352910179857 0)
(1.0005651903337 -0.0081491606928904 0)
(1.0007995346722 -0.0095426315855672 0)
(1.0010779913209 -0.010918138296469 0)
(1.0014020655244 -0.012274264497652 0)
(1.0017737079483 -0.013611274885228 0)
(1.0021941692755 -0.014934992251905 0)
(1.0026664915916 -0.016259865157208 0)
(1.0031924910403 -0.017601139680659 0)
(1.0037778766947 -0.018973703329666 0)
(1.0044240288773 -0.02037877656782 0)
(1.0051396702103 -0.021815012109427 0)
(1.0059217352043 -0.023260253706795 0)
(1.0067834800025 -0.024705762666841 0)
(1.0077116159797 -0.026114347927633 0)
(1.0087298758515 -0.027492579724927 0)
(1.0098050737183 -0.028788627011753 0)
(1.0109865694676 -0.030042237388582 0)
(1.0121999229835 -0.031167478144295 0)
(1.0135540768873 -0.032273742660557 0)
(1.0148786510951 -0.033189165106327 0)
(1.0164324230586 -0.034201557486373 0)
(1.0178111362814 -0.034868137396591 0)
(1.0196449411065 -0.035893928411644 0)
(1.0209641638702 -0.036177583456585 0)
(1.0233824077751 -0.037400149301872 0)
(1.00000045337 -0.00081979520937045 0)
(1.0000338451892 -0.0024268848267864 0)
(1.0001003315976 -0.0040026889845672 0)
(1.0002022734656 -0.0055484179260744 0)
(1.0003416016841 -0.0070664396674179 0)
(1.0005201305239 -0.0085620319067403 0)
(1.0007396446515 -0.010041004066378 0)
(1.001002411768 -0.011505994424445 0)
(1.0013103924261 -0.012955447447759 0)
(1.0016660597905 -0.014389681474311 0)
(1.0020711066352 -0.015815104496248 0)
(1.0025292309125 -0.017247625570664 0)
(1.0030427059504 -0.018703967784753 0)
(1.0036181733273 -0.020200538198624 0)
(1.0042573455219 -0.02173859446067 0)
(1.0049702676932 -0.023316912625743 0)
(1.0057537618942 -0.024911143717308 0)
(1.0066230945904 -0.026512356521507 0)
(1.007563970551 -0.028079386352458 0)
(1.0086033493801 -0.02962015379229 0)
(1.0097054246235 -0.031076763892655 0)
(1.0109246997 -0.032493573862158 0)
(1.0121816044957 -0.033775362779166 0)
(1.013593475962 -0.035043008659478 0)
(1.0149807196341 -0.036106464184279 0)
(1.0166167425571 -0.037283307515137 0)
(1.0180778943634 -0.038083652294878 0)
(1.0200264884741 -0.039286322196985 0)
(1.0214448295955 -0.039675954857567 0)
(1.0240646892166 -0.041127011953939 0)
(1.0000003208618 -0.00084805616321987 0)
(1.0000293119196 -0.0025146539029739 0)
(1.0000877593269 -0.0041531393315315 0)
(1.0001783263856 -0.0057648844019128 0)
(1.0003033496881 -0.0073524766088696 0)
(1.0004651075299 -0.0089216221580535 0)
(1.0006658568388 -0.010478594567774 0)
(1.0009083536512 -0.012026240535338 0)
(1.0011950172537 -0.01356288836526 0)
(1.0015288385598 -0.015088933977386 0)
(1.0019119633743 -0.01661140639958 0)
(1.0023487423579 -0.018147700171771 0)
(1.0028419141138 -0.019716045474646 0)
(1.0033990487252 -0.02133440177096 0)
(1.0040221998121 -0.023004094588115 0)
(1.0047227413005 -0.02472410901438 0)
(1.00549741303 -0.026467958249116 0)
(1.0063635113714 -0.028226687216417 0)
(1.0073058233941 -0.029955196432048 0)
(1.0083545641852 -0.031662961007663 0)
(1.0094714913233 -0.033285981064242 0)
(1.0107162886821 -0.034873537874326 0)
(1.0120045266666 -0.036320919788518 0)
(1.0134620142967 -0.037761019602404 0)
(1.014900233151 -0.038985298683359 0)
(1.0166075017358 -0.040341070426477 0)
(1.0181407986422 -0.041292351794624 0)
(1.02019566276 -0.042689552014339 0)
(1.0217048043255 -0.043207106382652 0)
(1.0245213131843 -0.044908567988359 0)
(1.0000001761224 -0.00087052440638819 0)
(1.000024129469 -0.002585635402372 0)
(1.0000733023211 -0.0042763974550506 0)
(1.0001506404588 -0.0059443427094649 0)
(1.0002588783034 -0.0075922746777934 0)
(1.0004007513065 -0.0092263189618038 0)
(1.0005789846929 -0.010853207990091 0)
(1.0007968065075 -0.012475997832062 0)
(1.0010570878078 -0.014092924568397 0)
(1.0013633164399 -0.01570448332703 0)
(1.0017180940098 -0.017318359646994 0)
(1.0021263973983 -0.018953439460457 0)
(1.0025914330813 -0.020629489257185 0)
(1.0031216580569 -0.022366030798937 0)
(1.0037194690745 -0.024164510020631 0)
(1.0043975332188 -0.026024200955612 0)
(1.0051525392297 -0.027916566789454 0)
(1.0060037872576 -0.029832808609201 0)
(1.0069352409271 -0.031723967935497 0)
(1.0079803457018 -0.033601305966519 0)
(1.0090986279933 -0.035394749919876 0)
(1.0103549522723 -0.037158802199357 0)
(1.0116602714019 -0.038779212319771 0)
(1.0131490582659 -0.040401218691207 0)
(1.0146238479536 -0.041797980900862 0)
(1.01638865302 -0.043345794591059 0)
(1.017980636086 -0.044464786585589 0)
(1.0201292995139 -0.046074175141301 0)
(1.021721520289 -0.046738563014951 0)
(1.0247082588443 -0.048723047047824 0)
(1.000000021422 -0.00088726736644831 0)
(1.0000183736143 -0.0026399557171429 0)
(1.0000571686014 -0.0043725660190586 0)
(1.0001196094375 -0.0060867832111725 0)
(1.0002088119122 -0.0077856176420496 0)
(1.0003279535855 -0.0094755992325399 0)
(1.0004802122089 -0.011163907309905 0)
(1.0006692632839 -0.0128538056059 0)
(1.0008984089084 -0.014543459709446 0)
(1.0011716027471 -0.016233484894255 0)
(1.0014918869578 -0.017932251649341 0)
(1.0018648214501 -0.019660128238137 0)
(1.0022940666978 -0.02143843671445 0)
(1.0027888975155 -0.02328824952814 0)
(1.0033520508821 -0.025211201613892 0)
(1.0039974030142 -0.027206920817328 0)
(1.0047216393213 -0.029244947216132 0)
(1.0055459710423 -0.031316815792954 0)
(1.0064536649806 -0.033369820097772 0)
(1.0074812724835 -0.035417270490342 0)
(1.0085863493441 -0.037383103464932 0)
(1.0098388113495 -0.039327345878303 0)
(1.0111453861897 -0.041126279831274 0)
(1.0126490397442 -0.042937766165753 0)
(1.0141441633927 -0.044516680283665 0)
(1.0159490231994 -0.046268890346889 0)
(1.0175854022033 -0.04756855047489 0)
(1.0198075799274 -0.049411558106694 0)
(1.0214757988315 -0.050234352307909 0)
(1.024600182659 -0.052533881101295 0)
(0.99999985916222 -0.00089845432781632 0)
(1.0000121326821 -0.0026780406932316 0)
(1.0000396058198 -0.00444224133205 0)
(1.0000857082671 -0.0061928829649708 0)
(1.0001539133447 -0.0079331659909117 0)
(1.0002478170708 -0.0096700011813645 0)
(1.0003710223237 -0.011410995768891 0)
(1.0005276197426 -0.013159615755349 0)
(1.0007213103048 -0.014913976053829 0)
(1.000956475417 -0.016674830807149 0)
(1.0012365662722 -0.018451254912733 0)
(1.0015676722244 -0.020265077202477 0)
(1.0019538756491 -0.022139174328847 0)
(1.0024051760023 -0.024096143155908 0)
(1.0029246381781 -0.026137873498478 0)
(1.0035272093319 -0.028264413869645 0)
(1.0042096472502 -0.030443531299781 0)
(1.0049948777989 -0.032667272527206 0)
(1.0058656777306 -0.034879318711123 0)
(1.0068614236261 -0.037095322355598 0)
(1.0079380755357 -0.039233334536609 0)
(1.0091702707264 -0.041359278397258 0)
(1.010461127746 -0.043340014011491 0)
(1.0119615284674 -0.045346510239888 0)
(1.013459139135 -0.047114849073202 0)
(1.0152841971127 -0.049082154236875 0)
(1.0169479659476 -0.050573645049331 0)
(1.0192221613494 -0.052667580093782 0)
(1.0209519724385 -0.053665030181709 0)
(1.0241854781899 -0.056297599185978 0)
(0.99999969345204 -0.00090433830343653 0)
(1.0000055016985 -0.0027005830889105 0)
(1.0000208813126 -0.0044864622286832 0)
(1.0000494554475 -0.0062639336465582 0)
(1.0000950278857 -0.0080363713199148 0)
(1.0001615813223 -0.0098110356510465 0)
(1.000253105929 -0.011595936340011 0)
(1.0003740637787 -0.013394728618197 0)
(1.0005285154411 -0.015205491848345 0)
(1.0007212229994 -0.017029127386639 0)
(1.0009560084917 -0.01887542565074 0)
(1.0012394202302 -0.020767637575947 0)
(1.0015759239363 -0.022730177796675 0)
(1.0019761175928 -0.024787126671559 0)
(1.0024433835215 -0.026940691282834 0)
(1.0029935408475 -0.029191416260733 0)
(1.0036235297504 -0.03150546214437 0)
(1.0043576968394 -0.033875552905 0)
(1.0051785985929 -0.036241925052091 0)
(1.0061280191672 -0.038622826485869 0)
(1.0071607750402 -0.040930622840477 0)
(1.0083557533554 -0.043237492693774 0)
(1.0096131641108 -0.045400935568596 0)
(1.0110911034157 -0.047605598314512 0)
(1.0125718061229 -0.049568213770865 0)
(1.0143958557974 -0.051758617313316 0)
(1.0160669690555 -0.053451883333333 0)
(1.0183708162946 -0.055810504613981 0)
(1.0201432646003 -0.056999410339674 0)
(1.0234542102947 -0.05997819624395 0)
(0.99999952314626 -0.00090524919935793 0)
(0.99999858688215 -0.0027084578429595 0)
(1.0000012768679 -0.004506607874802 0)
(1.000011388756 -0.0063017324946498 0)
(1.0000330304054 -0.0080973467127826 0)
(1.0000705332422 -0.0099010281233509 0)
(1.0001282338785 -0.011721167587103 0)
(1.0002109132589 -0.013561597307083 0)
(1.0003229531023 -0.015420377993985 0)
(1.0004694364202 -0.017298548774139 0)
(1.0006545197282 -0.019206617057178 0)
(1.000885108855 -0.021169181069798 0)
(1.001166015323 -0.023212169067377 0)
(1.0015082645225 -0.025361054707187 0)
(1.0019155565117 -0.027618460204294 0)
(1.002404336247 -0.029985444434669 0)
(1.0029718465019 -0.032426835847136 0)
(1.0036435173909 -0.034936061191731 0)
(1.0044019625914 -0.037450271979466 0)
(1.0052908806811 -0.039990343618421 0)
(1.0062644603476 -0.042463437684149 0)
(1.0074051682884 -0.044948173988497 0)
(1.008611206446 -0.047292876898378 0)
(1.0100468655338 -0.049696325915526 0)
(1.0114902014609 -0.05185538525494 0)
(1.0132907822316 -0.054273676537854 0)
(1.0149466878547 -0.056176089786475 0)
(1.0172561425283 -0.058810265254086 0)
(1.0190497487495 -0.06020630883213 0)
(1.0224047920875 -0.063540839615549 0)
(0.99999935102721 -0.00090155882545083 0)
(0.99999145779112 -0.0027027448410405 0)
(0.99998104418298 -0.0045043350817796 0)
(0.9999720306157 -0.0063084437210887 0)
(0.9999687989316 -0.0081186947191567 0)
(0.99997597813197 -0.0099429252495954 0)
(0.99999819980294 -0.011789870855898 0)
(1.0000405013825 -0.013663524649572 0)
(1.0001075694376 -0.015561963019454 0)
(1.0002047464087 -0.017486352967744 0)
(1.0003365144333 -0.019447933174893 0)
(1.0005099878065 -0.021472528146582 0)
(1.0007303150179 -0.023587575238162 0)
(1.0010086801922 -0.025819743355079 0)
(1.0013491763797 -0.028172268077193 0)
(1.0017684773392 -0.030646540955742 0)
(1.0022643982232 -0.033206589144753 0)
(1.0028628625228 -0.035846188945568 0)
(1.0035471097524 -0.038500197061694 0)
(1.00436181182 -0.041191620031685 0)
(1.0052616218459 -0.043823487715672 0)
(1.0063311018118 -0.046480517435403 0)
(1.0074683539963 -0.049002695221979 0)
(1.0088417149846 -0.051602719289035 0)
(1.0102273772439 -0.053957827125641 0)
(1.0119814387739 -0.056605103299314 0)
(1.0135981199446 -0.058720463863703 0)
(1.0158864750759 -0.061635112837921 0)
(1.0176758966952 -0.063250872755421 0)
(1.0210424114912 -0.066941881878475 0)
(0.99999917702685 -0.00089369317688195 0)
(0.99998421267759 -0.0026846223829209 0)
(0.99996044596939 -0.0044814952403121 0)
(0.99993190117754 -0.0062864670808356 0)
(0.99990320514004 -0.0081032714278468 0)
(0.99987923829459 -0.0099399769917682 0)
(0.99986486593342 -0.011805629654505 0)
(0.99986528071693 -0.013704336471953 0)
(0.99988545299842 -0.015634184148888 0)
(0.99993091423064 -0.017596418677425 0)
(1.0000065167569 -0.019603022918035 0)
(1.0001193844541 -0.021680901624382 0)
(1.0002750800949 -0.023859074031828 0)
(1.0004845202576 -0.026165136808104 0)
(1.0007524924121 -0.028603322711044 0)
(1.0010951291882 -0.03117490104282 0)
(1.0015116189695 -0.033844039714887 0)
(1.0020269833565 -0.036603867502638 0)
(1.0026267797236 -0.039388545903525 0)
(1.0033541133097 -0.042221536909586 0)
(1.0041672883375 -0.045004092531751 0)
(1.0051484264287 -0.047825011401676 0)
(1.0062013887571 -0.050518547961579 0)
(1.0074910711591 -0.05330932547718 0)
(1.0088015162462 -0.055857163191169 0)
(1.0104844950858 -0.058731426196277 0)
(1.0120425249545 -0.061059475525705 0)
(1.0142807560944 -0.064255733892014 0)
(1.0160402762554 -0.066092152861876 0)
(1.0193845083082 -0.070131497636123 0)
(0.99999899448772 -0.00088220301176826 0)
(0.99997703575367 -0.0026556546094801 0)
(0.99993994909006 -0.0044404599732249 0)
(0.99989178624792 -0.0062388241428916 0)
(0.9998373666345 -0.0080545825594737 0)
(0.99978179436822 -0.0098960060803129 0)
(0.99973015929746 -0.011772499214818 0)
(0.99968776936208 -0.013688361844437 0)
(0.99965986976331 -0.015641729031572 0)
(0.99965207524095 -0.017633799016013 0)
(0.99966961242739 -0.019677121105094 0)
(0.99971933501542 -0.021799373779724 0)
(0.99980731693775 -0.024031174990609 0)
(0.99994365561927 -0.026400800798796 0)
(1.0001343927768 -0.028914055380114 0)
(1.0003939723879 -0.031571550930792 0)
(1.0007244867964 -0.034339010312334 0)
(1.0011475664606 -0.037207339879214 0)
(1.0016545776113 -0.040112796153337 0)
(1.0022819185374 -0.043075925851446 0)
(1.0029986833304 -0.046000998644919 0)
(1.0038739987479 -0.048975568366324 0)
(1.0048320595516 -0.051834652782746 0)
(1.0060129515185 -0.054808121259923 0)
(1.0072384953325 -0.05754499195815 0)
(1.0088161750251 -0.060643430932882 0)
(1.010312068293 -0.06318137445842 0)
(1.0124606255731 -0.066673232957775 0)
(1.0141947881759 -0.068714456218583 0)
(1.0174749415487 -0.073146783487506 0)
(0.99999878566988 -0.00086789527703345 0)
(0.99997018789829 -0.0026182893194794 0)
(0.99992020638243 -0.0043849855639725 0)
(0.99985273289953 -0.0061704840179419 0)
(0.99977276284249 -0.0079786579828181 0)
(0.99968552553905 -0.0098178399618587 0)
(0.99959621328511 -0.011697721475446 0)
(0.99951028336773 -0.013622957305909 0)
(0.9994334316005 -0.015592099204985 0)
(0.99937150902268 -0.017606529933014 0)
(0.99933014690549 -0.019679278793656 0)
(0.99931564492415 -0.021838403197897 0)
(0.99933438568033 -0.024115804821739 0)
(0.99939507790666 -0.026540034553788 0)
(0.99950528785224 -0.029118774106748 0)
(0.99967683177653 -0.031851515263858 0)
(0.99991600349258 -0.034707038426229 0)
(1.0002387445038 -0.037672390699074 0)
(1.0006457143824 -0.040689723122497 0)
(1.0011611125046 -0.043771831046187 0)
(1.0017731121939 -0.046834144343983 0)
(1.0025249671252 -0.04995288561165 0)
(1.0033809612054 -0.052978968815319 0)
(1.0044251820506 -0.056129161844629 0)
(1.0055651759518 -0.059066549609282 0)
(1.0069887609841 -0.062388360692789 0)
(1.0084388534465 -0.065155506237685 0)
(1.0104180703446 -0.068973221681056 0)
(1.0122112522732 -0.071227423408409 0)
(1.0153610141204 -0.076335293228816 0)
(0.99999848833917 -0.00085254002506519 0)
(0.99996321118854 -0.0025779028294962 0)
(0.99990073792193 -0.0043249864470667 0)
(0.99981424124936 -0.0060968832832758 0)
(0.99970910546436 -0.007897061129488 0)
(0.99959062866889 -0.0097336907261002 0)
(0.99946390970679 -0.01161640265968 0)
(0.99933428130575 -0.013549974956964 0)
(0.9992077351088 -0.01553336622179 0)
(0.99909063414513 -0.017568333493109 0)
(0.99898932518996 -0.019668835146095 0)
(0.9989098651877 -0.02186408334727 0)
(0.99885868793995 -0.024187941080888 0)
(0.99884295930251 -0.026669521417722 0)
(0.99887100613854 -0.029318169211413 0)
(0.9989520028078 -0.03213121229246 0)
(0.99909552995121 -0.03508043020766 0)
(0.99931219136828 -0.038146854347682 0)
(0.9996111935044 -0.041281405777514 0)