/*--------------------------------*- C++ -*----------------------------------*\
| =========                 |                                                 |
| \\      /  F ield         | OpenFOAM: The Open Source CFD Toolbox           |
|  \\    /   O peration     | Version:  2112                                  |
|   \\  /    A nd           | Website:  www.openfoam.com                      |
|    \\/     M anipulation  |                                                 |
\*---------------------------------------------------------------------------*/
FoamFile
{
    version     2.0;
    format      ascii;
    arch        "LSB;label=32;scalar=64";
    class       volScalarField;
    location    "16.8";
    object      p;
}
// * * * * * * * * * * * * * * * * * * * * * * * * * * * * * * * * * * * * * //

dimensions      [0 2 -2 0 0 0 0];

internalField   nonuniform List<scalar> 
22000
(
0.042655516381581
0.042632914350302
0.042586289139706
0.042514429205331
0.042416779442227
0.042293340276205
0.042144349202501
0.041970045617752
0.041770587154735
0.041546068130274
0.041296564921383
0.041022172550224
0.04072301423325
0.040399243422098
0.040051031443076
0.039678574889737
0.03928208164285
0.038861795627184
0.038417965283668
0.037950896655065
0.03746087866426
0.036948299346321
0.036413475433388
0.035856914090047
0.035278924649481
0.034680205146567
0.034060965718251
0.033422247344509
0.032763936407204
0.032087712006767
0.043078368792876
0.043054714273841
0.043006945990129
0.0429339450443
0.042835101965667
0.042710336446271
0.042559827153027
0.042383781982721
0.042182341244082
0.04195558485321
0.041703571518098
0.041426375622097
0.041124095955244
0.040796861754234
0.040444817249526
0.040068135208824
0.039666994257998
0.039241616640152
0.03879221790786
0.038319088129253
0.037822475849434
0.037302765867374
0.036760218345486
0.036195362439864
0.03560841160719
0.035000133327653
0.034370546115184
0.03372083528409
0.033050431790919
0.032361183226796
0.043851238465854
0.043827068531494
0.043778328870119
0.043703993869281
0.043603507467903
0.043476783770662
0.043323963933986
0.043145212773104
0.042940631656085
0.042710265753958
0.042454137903788
0.042172284797014
0.04186476222682
0.041531656086963
0.041173061222753
0.040789105508446
0.040379913015225
0.039945663998969
0.039486512225711
0.039002715268381
0.038494446383028
0.037962082062366
0.037405778614108
0.036826108840279
0.036223116058691
0.035597721939069
0.034949614248117
0.034280337559888
0.033588523576629
0.032876539249999
0.044919500604358
0.044894903953497
0.044845300815918
0.044769664796897
0.044667445203415
0.044538549219899
0.044383091049029
0.04420119424164
0.043992911538065
0.043758237545768
0.04349714105847
0.043209602797422
0.042895615645122
0.042555201871656
0.042188383412078
0.041795220638942
0.041375755646353
0.040930103749989
0.040458325385141
0.039960626044278
0.039437066060481
0.03888800233573
0.038313436713799
0.03771399470825
0.037089469412031
0.036440983682045
0.03576773679934
0.035071739295005
0.034350443001974
0.03360687224436
0.046234823127731
0.046209853525939
0.046159484279779
0.04608267423317
0.045978859758214
0.045847927647676
0.045689956353611
0.045505019388412
0.045293108493901
0.045054151579011
0.044788044013796
0.044494689673463
0.044173995436326
0.043825896290725
0.043450314466494
0.043047216634308
0.042616531918564
0.04215828334646
0.041672402278468
0.041159016321096
0.040618030065625
0.040049761640782
0.039454002592849
0.038831428146805
0.038181497709182
0.037505568591273
0.036802205906425
0.036073991881339
0.035316887164681
0.034534752616074
0.047753857833711
0.047728630455807
0.047677723033295
0.047600081543602
0.047495123995209
0.047362705810486
0.047202856084812
0.047015583696638
0.046800803326131
0.046558358222995
0.046288049660091
0.045989682051558
0.045663050920341
0.045307977514797
0.044924254623462
0.044511725547041
0.044070172000584
0.043599492906557
0.043099450686286
0.042570063392318
0.042011032811406
0.041422611627344
0.040804322277611
0.040156877587318
0.039479321814945
0.038773268201961
0.038036513967759
0.037272296537094
0.03647479612703
0.035648821971116
0.049437300865554
0.049412012408366
0.049360960040808
0.049283077670031
0.049177758740074
0.049044816592462
0.048884217770448
0.048695891769352
0.048479659747269
0.048235261970447
0.047962384600299
0.047660709256664
0.047329893594838
0.046969616814211
0.046579510372318
0.046159261609495
0.045708467445578
0.045226866741039
0.044714009449924
0.04416976664704
0.043593586140893
0.042985620247702
0.042345059943552
0.041672631550214
0.04096688110679
0.04022967922636
0.039457925011815
0.038655557082431
0.037814700223633
0.036941147863524
0.051249136408031
0.051224056523906
0.051173406804601
0.051096105525788
0.05099151343511
0.050859391921123
0.050699633086636
0.050512073147999
0.050296423769945
0.05005230426181
0.049779265024767
0.049476841733926
0.049144527620129
0.04878183083396
0.048388188589573
0.047963097666963
0.047505930677925
0.047016226830552
0.046493276956421
0.045936761960245
0.045345820674424
0.04472046134269
0.044059477154746
0.043363569668945
0.042630701947288
0.041862980907315
0.041056282629731
0.040215255233268
0.039329716251687
0.038406403515847
0.053156202977056
0.053131664630185
0.053082086527046
0.053006375639239
0.052903857107257
0.052774232468564
0.052617308103441
0.052432813241431
0.052220334178585
0.051979351614929
0.051709260493999
0.051409428475973
0.051079158874274
0.050717760382672
0.050324443514845
0.049898479321071
0.04943897596803
0.048945230992414
0.048416227591783
0.047851408359992
0.04724954536056
0.046610450308789
0.045932449668673
0.045216167901739
0.044458900060637
0.043662944685558
0.042823038492537
0.041944506413687
0.041014632922998
0.0400409740287
0.055127929785005
0.055104315373725
0.055056577595277
0.054983621323544
0.054884736369689
0.0547595578978
0.054607796278268
0.054429062042673
0.054222803521744
0.05398834833671
0.053724918229145
0.053431691990189
0.053107759444969
0.052752203353755
0.052363977168922
0.05194209220562
0.051485353351519
0.050992773811834
0.050462980714387
0.04989512665354
0.049287558169391
0.048639830462751
0.047949733257826
0.04721774727459
0.046440416353731
0.045620161241844
0.044750472697444
0.043837275170959
0.042865122361288
0.041842165914594
0.057136262905279
0.057113991453758
0.057068936608666
0.057000014174457
0.056906481939145
0.056787904052261
0.056643886635151
0.056473912271562
0.056277281635715
0.056053158595533
0.055800579161423
0.055518517478569
0.055205829708002
0.054861348798539
0.05448374423432
0.054071736475922
0.053623791684635
0.053138597509754
0.052614378990331
0.052049945580107
0.051443160840047
0.050793257182287
0.050097418791858
0.049355902817141
0.048564421980163
0.047725424185594
0.046831059904421
0.045887728348812
0.044877085100252
0.043807552627852
0.059155701045378
0.059135212734464
0.059093728201633
0.059030189110256
0.05894382658681
0.058834131866952
0.058700601698
0.058542585180306
0.058359230030831
0.058149530325016
0.057912328604814
0.057646383956478
0.05735030579464
0.057022659510864
0.056661808547688
0.05626615568316
0.055833798219102
0.055363060620608
0.054851724782286
0.054298204783608
0.053699827860756
0.053055433564987
0.05236153540118
0.051618074907015
0.050819860021436
0.049969245858971
0.049056962361751
0.048089710656864
0.047046114924827
0.045934436463608
0.061163372930533
0.06114511393728
0.061108099578679
0.061051315098071
0.060973973054717
0.060875492300017
0.06075525853735
0.060612486277494
0.060446170154726
0.060255134050055
0.06003802545381
0.059793384289399
0.059519566835261
0.059214860858783
0.058877310837703
0.058504981630825
0.058095578514211
0.057647030763579
0.057156643558299
0.056622387006225
0.056041005815125
0.055410875382163
0.054727780515562
0.053991245888447
0.053195109645559
0.05234149040477
0.051419634941253
0.050436325442106
0.049367058005501
0.048219391753671
0.063139114312315
0.063123520800482
0.063091858650872
0.063043175564276
0.062976675438198
0.062891708457052
0.062787551552292
0.062663288291548
0.062517765729789
0.062349643367644
0.062157378963905
0.06193929650289
0.06169350080492
0.061418000013331
0.061110515861755
0.060768765317271
0.060390048764353
0.059971875752824
0.059511050937954
0.059005058073899
0.058450023412593
0.057843789233857
0.057181364245046
0.056461748769828
0.05567775924819
0.054831113593007
0.053909532612148
0.052919612588567
0.051833666030083
0.050657899237735
0.065065518715753
0.065053003101041
0.065027528041063
0.064988224599224
0.064934300126806
0.064865042155221
0.064779624922978
0.064677009701327
0.064555907244854
0.064414824881196
0.064252043147167
0.064065681147106
0.063853602741303
0.063613543661203
0.063342909309563
0.063039068668118
0.06269891697931
0.06231953100963
0.061897203010861
0.061428896773096
0.060910097262935
0.060338050061874
0.059706954817131
0.059015178523717
0.058254481127121
0.057425999579952
0.056515911525248
0.055530317173529
0.054438333895395
0.053244056660285
0.066927941578014
0.066918879758219
0.066900355403408
0.066871604020766
0.066831849648871
0.066780326103443
0.066716114743714
0.066638067826763
0.066544776688334
0.066434614891802
0.06630570522549
0.066155980732177
0.06598308375565
0.065784494565085
0.065557319614598
0.06529859094082
0.065004810790012
0.064672622672511
0.064297810503573
0.063876796075446
0.063404415925342
0.062877264509757
0.062288716738562
0.06163639914354
0.060911002076995
0.06011289197115
0.059226718106197
0.058257739558208
0.057171918625974
0.055970373126038
0.068714451435353
0.068709172951194
0.068698271019245
0.068681107031745
0.068656936456144
0.068624949720121
0.068584148112992
0.068533292646025
0.068470877344696
0.068395166223192
0.068304150257582
0.068195602500147
0.068066971539015
0.067915508583014
0.067738049371882
0.06753131185673
0.067291430546604
0.067014628426853
0.066696200483782
0.066332020553289
0.065916287529606
0.06544490389621
0.064910424689976
0.064309636586457
0.063632168983227
0.06287742179555
0.062028568883766
0.061089662607003
0.060023619141192
0.058827617068617
0.070415726321216
0.070414506032924
0.070411790243769
0.070407089440488
0.070399704920793
0.070388794736619
0.070373295139206
0.070351897104214
0.070323023779519
0.070284858905309
0.070235293445384
0.07017197326409
0.070092188335021
0.069992995904223
0.069870998964026
0.069722636048888
0.069543711767564
0.06933005619386
0.069076509111025
0.068778407294589
0.068429340421675
0.068024498515078
0.067555642148443
0.06701863968937
0.066402091369327
0.065704236081232
0.064906846305161
0.064012384840888
0.062980927701099
0.061804700294575
0.072024896692105
0.072027952353151
0.072033870507898
0.072042334190561
0.072052704511738
0.072064119500436
0.072075467888682
0.072085394509091
0.072092280566292
0.072094262267743
0.072089167218094
0.072074552763946
0.072047591610471
0.07200518988392
0.071943763936263
0.071859518752794
0.07174797743077
0.071604621180389
0.071423880452904
0.071200587776874
0.070927760968652
0.070599886108841
0.070207961071997
0.069746903342052
0.069204330709402
0.068577184999904
0.067845899902418
0.067010941035072
0.066029767686895
0.064888651424096
0.073537353213457
0.073544844077009
0.073559724803612
0.073581870536161
0.07361071801887
0.073645399774517
0.07368477597405
0.073727470655446
0.073771853970351
0.073816049534638
0.073857861023155
0.073894799199588
0.07392396585918
0.073942165903875
0.073945682736195
0.073930543682901
0.073892047220295
0.073825386010527
0.073724635702368
0.073584185913351
0.073396520999636
0.073155476589268
0.072851288549456
0.072477967724995
0.072022131387391
0.071479494839582
0.070829158257671
0.070069404004395
0.069154935487691
0.068064987954669
0.074950499882866
0.074962538265226
0.074986607153692
0.07502278254403
0.075070588884452
0.075129171533336
0.075197384618011
0.075273855006538
0.07535697464534
0.075444896171936
0.075535441430089
0.075626113337149
0.075713990730222
0.075795831692519
0.075867849033019
0.07592595514925
0.075965291893649
0.075980835733299
0.075966374200742
0.075915940748132
0.075821529635737
0.075676442048601
0.075470103516807
0.075195782331366
0.074838822132121
0.074394107774064
0.073839020311695
0.073170711761425
0.072340094420301
0.071318731358922
0.076263485695751
0.076280141864548
0.076313541649246
0.076363954643372
0.076430995641497
0.076513838617058
0.076611363041129
0.076722219623487
0.07684484309864
0.076977462559625
0.077117967623441
0.077263888439716
0.077412330655182
0.077560059648035
0.077703288186297
0.077837871478833
0.077958879130903
0.078061137027878
0.078138245756863
0.078183959646798
0.078189880106912
0.078148899016264
0.078049645057431
0.077884918781226
0.077638310066025
0.077304498472159
0.076857361470195
0.076296017951314
0.075564728907478
0.074633923723987
0.077476965715136
0.07749819886426
0.077540935248364
0.077605651146923
0.077692046543161
0.077799289544789
0.077926297071722
0.078071821493888
0.078234377020571
0.078412277744095
0.078603494952402
0.078805618664313
0.079015843649815
0.079230996151641
0.079447369654052
0.079660804848177
0.079866402439859
0.080058856034016
0.080231735917881
0.08037849067718
0.080490581806556
0.080560384765569
0.080576134170737
0.080530076199804
0.08040441073065
0.080193777598356
0.079866367092419
0.079424822074824
0.078798365361996
0.077980879692463
0.078593090948176
0.078618586440074
0.078670246391952
0.078748964787022
0.078854578509462
0.078986142927302
0.079142422332244
0.0793223506045
0.079524819394165
0.079748263020344
0.079990605431459
0.080249482065791
0.080522241208287
0.080805797601316
0.081096590708093
0.081390481393593
0.081682725115913
0.081967856592885
0.082239616299564
0.082490949197243
0.082713644977024
0.082898909092174
0.083035766455187
0.083114198927664
0.083118209771482
0.083038864570109
0.082845637820538
0.082534313484773
0.082015244396333
0.081292653986182
0.079615896426916
0.079645177109071
0.079704682379664
0.079796231524421
0.079919988291817
0.080074968016114
0.080259527163097
0.080472333345511
0.080713109177542
0.08098072900697
0.08127304501947
0.081587722000944
0.081922324591138
0.082273874045617
0.082638957217405
0.083013510548504
0.083393061930172
0.083772066762686
0.084144641117331
0.084503157885769
0.084840217392877
0.085145266740582
0.085409578009598
0.085618134443551
0.085761919278959
0.085818953490608
0.085781388366716
0.085611682193677
0.085266813815888
0.084576562334134
0.031435743233974
0.03081150292154
0.030173048156105
0.029521532093674
0.028858055710131
0.028183465373279
0.027498412460814
0.026803486716959
0.026099313052691
0.025386584854432
0.024666054365104
0.023938510141934
0.023204760867586
0.022465629014282
0.021721950082482
0.020974573544457
0.020224364109887
0.019472200501831
0.018718973205092
0.01796558216244
0.017212936088828
0.016461953857681
0.015713570888053
0.014968748263663
0.014228465607247
0.013493476693865
0.012764494236865
0.012042397439865
0.011328117677998
0.010622551544508
0.0099265374114998
0.0092408658930559
0.0085662912221995
0.0079035401878369
0.0072533092900004
0.0066162659033602
0.0059930380023548
0.0053842209820649
0.0047903608409048
0.0042119752436336
0.0036495178205857
0.0031034291752537
0.0025740564986189
0.0020617720919447
0.0015667904072267
0.0010894384737147
0.00062973624369827
0.00018800264149858
-0.00023611888941711
-0.00064237052610944
0.031699397763383
0.031067976304374
0.030420335976475
0.029759143730199
0.02908615751555
0.02840216559859
0.027707481248156
0.027002397518485
0.026287391085567
0.025563121480575
0.024830351260949
0.024089879489947
0.023342514963982
0.02258907685537
0.021830404567318
0.021067365024034
0.020300853856536
0.01953179235827
0.018761122766549
0.017989803756953
0.017218804292799
0.016449094669382
0.015681628684388
0.014917318375822
0.014157024802231
0.013401876576314
0.012653043071976
0.011911476688697
0.011178044411545
0.010453614049456
0.0097390632036399
0.0090352619846151
0.0083430539031143
0.0076632509987828
0.006996623329294
0.0063439064313858
0.0057057845214399
0.0050829107080051
0.0044758713864464
0.0038852359195108
0.0033114773332779
0.002755088855179
0.0022164052091474
0.0016958715011239
0.0011936380649341
0.00071017857613904
0.00024537707869282
-0.00020004021841572
-0.00062650615627336
-0.0010321588323518
0.032194349650208
0.031541963623079
0.030868888895615
0.030181207875682
0.029482290032349
0.028772981905026
0.02805303884414
0.027322270335631
0.026580964517681
0.025829809947083
0.025069668586688
0.024301418773463
0.023525909609689
0.022743978613104
0.021956482083867
0.021164313086172
0.020368403517824
0.019569716881976
0.018769239529383
0.017967974040404
0.017166935157563
0.016367147900198
0.015569650110602
0.014775502019792
0.013985798761036
0.013201582122487
0.012423856309744
0.011653629739901
0.010891891568528
0.010139610145175
0.009397732434736
0.0086671840931637
0.0079488568857287
0.0072436107199048
0.0065522563352477
0.0058755719297278
0.0052142718010526
0.0045690490306424
0.003940506074677
0.0033292567487669
0.0027357681194925
0.0021605970460827
0.0016040304908408
0.001066631681854
0.00054842049044337
5.0138354349225e-05
-0.00042860510057535
-0.00088634368022236
-0.0013237748449834
-0.0017361719205913
0.03289450756908
0.032208468127832
0.031495412832206
0.030766861766587
0.030028595820374
0.029281434694782
0.028524214003721
0.027755994103006
0.026976786794395
0.02618732903905
0.025388621165433
0.024581636022023
0.023767251640648
0.022946299007349
0.022119624952874
0.021288126194752
0.020452752565199
0.019614494877461
0.018774372015352
0.017933423532613
0.017092706300197
0.016253292631099
0.015416266643365
0.014582717316932
0.013753726040214
0.012930371813549
0.01211373173757
0.011304870830928
0.010504837465489
0.0097146607254975
0.0089353415383005
0.0081678553721563
0.007413138806869
0.0066721000650532
0.0059455931507607
0.0052344486323993
0.0045394196635933
0.0038612575550592
0.0032005919048392
0.0025581085656472
0.001934276193569
0.0013297585930983
0.00074478862149325
0.00018012214081998
-0.00036439429535906
-0.00088759936991129
-0.001390260923738
-0.0018697402861973
-0.002326984921802
-0.0027525734156131
0.03378457743017
0.03305418457369
0.032288463416815
0.031506458939326
0.030717142023194
0.029921161259849
0.029116030595446
0.028299789910256
0.027472100760626
0.026633784286201
0.02578602944359
0.02492992543143
0.024066373971348
0.023196183355913
0.022320175934804
0.021439242315116
0.020554344528428
0.019666495840816
0.01877674132369
0.017886147828993
0.016995800270033
0.016106799525765
0.015220259180118
0.014337301749287
0.013459054382847
0.012586646514271
0.011721203562515
0.010863841480075
0.010015658599603
0.0091777353809437
0.008351123658888
0.0075368525245206
0.0067359092465647
0.0059492588490574
0.0051778053125994
0.0044224414208474
0.0036839653858609
0.0029632008221223
0.0022608090271871
0.0015775691723514
0.00091395008400458
0.00027075843717545
-0.00035184323619674
-0.00095283702159498
-0.0015325994864901
-0.0020893934440838
-0.0026244756774433
-0.0031336140152267
-0.003618098241506
-0.004062205517103
0.03485484701887
0.034070569741704
0.033240406749837
0.032393221497442
0.031542000676762
0.03068704349405
0.029824108619246
0.028949943451046
0.028063804522706
0.027166653020928
0.026259928984258
0.025344865096535
0.024422383824847
0.023493256821015
0.022558270080805
0.021618301521515
0.020674321907981
0.019727363839367
0.018778494171273
0.017828801655094
0.016879394303595
0.015931399213571
0.014985960642929
0.014044237065137
0.01310739557935
0.012176605624324
0.011253032991283
0.010337836670742
0.0094321598286222
0.0085371313945473
0.007653851614609
0.0067834027293257
0.0059268225085467
0.005085134153166
0.0042592912492903
0.0034502527849864
0.0026588616688808
0.0018860216897631
0.0011324239405424
0.00039895725481522
-0.00031391669987384
-0.0010052163651974
-0.0016748732436195
-0.0023215411951607
-0.0029458833042812
-0.0035454369084562
-0.0041220859009804
-0.0046695793418206
-0.0051896400338315
-0.0056584380088843
0.036098792983904
0.035251934277872
0.03434616424389
0.033422719904909
0.032499468131087
0.031576114625224
0.030646172552956
0.029704812368934
0.0287508452058
0.027785444854063
0.026810372183171
0.025827029243233
0.02483635248873
0.023839060606649
0.022835890803861
0.021827702367032
0.020815472390863
0.019800250440102
0.018783121591225
0.017765192093474
0.01674758844118
0.015731459251074
0.014717973941012
0.013708319681058
0.012703694639334
0.011705302393843
0.010714345269011
0.0097320220194872
0.0087595169182806
0.007798004095563
0.006848629529779
0.005912527094981
0.004990782862368
0.0040844790303172
0.0031946179865651
0.002322228056828
0.0014681958803451
0.00063351414265525
-0.000181098739403
-0.00097462683007054
-0.0017466250388911
-0.0024959025147051
-0.0032225132348214
-0.0039247124046203
-0.0046035226970897
-0.0052555919644383
-0.0058835822780147
-0.0064787476282077
-0.0070433173717258
-0.0075433169849997
0.037512492496033
0.036595068214294
0.035602991593028
0.034592731251292
0.033587936075474
0.032587390759848
0.031581805108891
0.030564476174377
0.029533748861681
0.028491101608759
0.02743869309783
0.02637811896864
0.025310319134245
0.024235941237176
0.02315566236986
0.022070319449757
0.020980895324727
0.019888455575318
0.018794100662066
0.01769894994614
0.016604143316123
0.015510845565672
0.014420245810913
0.013333554564629
0.012251996268378
0.011176804280867
0.010109212970897
0.0090504564511079
0.008001756158594
0.0069643281683908
0.0059393599133494
0.0049280338877186
0.0039314813049761
0.0029508419405861
0.001987163848768
0.0010415471735881
0.00011491936327152
-0.00079163131243634
-0.0016773649518508
-0.0025411227903884
-0.0033824904785669
-0.0042000340564506
-0.0049939656578404
-0.0057620664574462
-0.0065058033540086
-0.0072207546816302
-0.0079105316099777
-0.0085633689574781
-0.0091820972732497
-0.0097203567701404
0.039093732911571
0.038098362015352
0.037009623725523
0.035902411482774
0.034807085868713
0.033721081754184
0.032631675445692
0.03152998852442
0.030413906031685
0.02928532668682
0.028146891044767
0.027000408676267
0.025846807442736
0.02468664470351
0.023520527923722
0.022349270795469
0.021173863736432
0.019995388369971
0.018814957986417
0.017633700887731
0.016452765533508
0.015273328051972
0.01409659254211
0.012923788223504
0.011756161025198
0.010594968350152
0.0094414704056323
0.0082969308925261
0.0071626020959039
0.006039735965679
0.0049295558839444
0.0038332881045119
0.0027521026493412
0.0016871934657452
0.00063964867406331
-0.0003893612493068
-0.001398874906061
-0.0023877042106973
-0.0033550980107615
-0.0042997408045768
-0.0052212689003816
-0.0061179703234796
-0.0069902590985144
-0.0078353612529157
-0.0086552869056037
-0.0094443464874655
-0.0102072985183
-0.010928782314023
-0.011612337194051
-0.012196705149044
0.040841228856248
0.039761058848438
0.03856558479774
0.037351670789621
0.036157323918543
0.034978078269068
0.03379707317152
0.032602958874858
0.031393204528202
0.030170270149799
0.028937366174281
0.0276965297812
0.026448655219253
0.025194189162935
0.023933662779333
0.02266786912041
0.021397810064388
0.02012458444817
0.0188493163303
0.017573139041778
0.016297205133682
0.015022697332794
0.013750829554046
0.012482843969993
0.011220001927776
0.0099635787278989
0.0087148538138199
0.0074751125222381
0.0062456294343918
0.0050276841292599
0.0038225269199573
0.0026314200985142
0.0014555645824841
0.00029620148323359
-0.00084555065727388
-0.0019684550793019
-0.0030715272911421
-0.0041534789261301
-0.0052135629285867
-0.0062502954545625
-0.0072633905987858
-0.0082508233848147
-0.0092132660252862
-0.010147300596883
-0.011055602054299
-0.011930991664356
-0.012779611325101
-0.013581854761303
-0.014342105282829
-0.014981373079574
0.042753981268123
0.041582652609475
0.040270645030447
0.038940693417209
0.037639355432664
0.036359566491438
0.035079556119248
0.033785230422207
0.032473736155752
0.031148263658726
0.029812681369683
0.028469256552909
0.027118820921969
0.025761690529675
0.024398318034811
0.023029482927972
0.02165620518974
0.020279602739171
0.018900808381484
0.017520956821111
0.016141200774508
0.014762725596612
0.013386750369365
0.012014523975807
0.010647314831808
0.0092864058416804
0.007933086957114
0.0065886581146488
0.0052544075913671
0.003931631401896
0.0026215946825934
0.0013255834894525
4.4816186572686e-05
-0.001219429486113
-0.0024660176028436
-0.0036936545309861
-0.0049013491387181
-0.0060877163685871
-0.0072520355428339
-0.008392646303653
-0.0095093772122924
-0.010599855649795
-0.011665082640575
-0.012700901864421
-0.013710799950286
-0.014685863677931
-0.015633903538949
-0.016530341916133
-0.017380589227636
-0.018084734990759
0.044830745948346
0.043562387485816
0.042124370094658
0.040669536563366
0.03925381926888
0.037866686556648
0.036480627238481
0.035078577256416
0.033657517896201
0.032221565439314
0.030775327913965
0.029321290184801
0.027860185223835
0.026392180883557
0.024917655933015
0.023437389094144
0.021952427708763
0.020463911582548
0.018972980542914
0.017480767142541
0.015988420279079
0.01449712377123
0.013008097489247
0.011522592965554
0.010041880390472
0.0085672369022513
0.0070999481475722
0.0056413140666789
0.0041926256657008
0.0027551856508597
0.0013302601080669
-8.0857816566465e-05
-0.0014769501286795
-0.0028567197944734
-0.0042190337843699
-0.0055625559959902
-0.0068863120681316
-0.00818882997953
-0.0094694470648327
-0.010726322096618
-0.011959447814483
-0.013166068994394
-0.014347606811617
-0.015499063511322
-0.01662491854285
-0.017714260826285
-0.018776909041029
-0.019782535444454
-0.020737800063017
-0.021518262675025
0.047069571899612
0.045698821973975
0.044125732632566
0.042537790153195
0.041000982449616
0.039500247682487
0.038001465425376
0.036484452061893
0.034946257560842
0.03339214455075
0.03182752734086
0.030255075527273
0.028675380499371
0.027088450360334
0.025494604094844
0.023894639248875
0.02228964283963
0.020680780060984
0.019069196666479
0.017456020906968
0.01584239543553
0.014229497976525
0.012618542126068
0.011010772088591
0.0094074597290179
0.0078098650887338
0.0062192613978871
0.0046369296235877
0.0030641400752886
0.0015021829254448
-4.7691074865449e-05
-0.0015841994365499
-0.0031061479032553
-0.0046122424728276
-0.0061013804950369
-0.0075722065653151
-0.0090237971643899
-0.010454610070937
-0.011864086114922
-0.013250204105715
-0.014613190438651
-0.015949869205068
-0.017262204244895
-0.018544232302845
-0.019801661988108
-0.021021262843292
-0.022215296857544
-0.023346810775731
-0.02442412833659
-0.025294530516733
0.049467427360846
0.047989474666411
0.046272798879554
0.044544301805759
0.042880487178511
0.041260486187325
0.039642694091108
0.038003770652202
0.036341158512599
0.034661503151514
0.032971066191032
0.031272645770049
0.029566645094787
0.027852911228893
0.026131729854848
0.024403944369042
0.022670696106416
0.020933179928211
0.019192547374598
0.017449921937767
0.015706440014638
0.013963273070668
0.012221626148996
0.010482727091304
0.0087478015714654
0.0070181186227526
0.0052949244426955
0.0035794667795234
0.001872975084682
0.00017669995208329
-0.0015081538904075
-0.0031803384799292
-0.0048387116606135
-0.0064820098606053
-0.0081092002677899
-0.0097189368945528
-0.011310395787495
-0.012881989769345
-0.014433329244947
-0.015962220247651
-0.017469222807107
-0.018950701369128
-0.020409332613925
-0.021838044083396
-0.02324409235518
-0.024611537419701
-0.025955661528155
-0.027231720982859
-0.028450129798411
-0.02942501013475
0.052019895551798
0.050430537017897
0.048562480525963
0.046686964455027
0.044891157456037
0.043146878851026
0.041404201668402
0.039636745189365
0.037842767074747
0.036030536824374
0.03420716591091
0.032375498060397
0.030535703519781
0.028687483862183
0.026831133171627
0.024967574820437
0.023098020904763
0.021223700270957
0.019345771884573
0.017465356631058
0.015583585312506
0.013701622100487
0.011820656106575
0.0099418926121495
0.0080665349191022
0.0061958062256845
0.0043309047294514
0.0024730339935042
0.00062336660302786
-0.001216908406331
-0.0030466672405554
-0.0048647259318376
-0.0066700375107467
-0.0084613990464449
-0.010237901180391
-0.011998240102974
-0.013741761639504
-0.015466861025925
-0.017173413753565
-0.018859061084914
-0.020524840385152
-0.022166610787701
-0.023787997550029
-0.025380650671315
-0.026953784708516
-0.028488319253001
-0.030003306858586
-0.031445102207802
-0.032827080131864
-0.033925183045769
0.054720954506309
0.0530166667393
0.050990359640121
0.048962563515726
0.047030849563566
0.045157991430443
0.043284996171704
0.041382753497782
0.039450858776188
0.037499431130318
0.035536382719073
0.033564495559821
0.031583672259901
0.029593507772546
0.02759436332769
0.025587282361607
0.023573563914371
0.021554475785481
0.019531188409748
0.017504826068729
0.015476520016718
0.013447428466337
0.011418722953062
0.0093915804848703
0.0073671645349051
0.0053466387603942
0.0033311393255425
0.001321804454797
-0.00068028371937713
-0.002674024409023
-0.0046584123631623
-0.0066323589391052
-0.0085949673048486
-0.010545129270442
-0.012482132249635
-0.014404745510776
-0.016312582474294
-0.018204045384903
-0.020079408402211
-0.021936147051271
-0.023775978044597
-0.025594182649098
-0.02739567632571
-0.029170598509077
-0.030930727145681
-0.032653294465556
-0.034362200771044
-0.035993522471252
-0.037565045506174
-0.038808573663759
0.057562814735355
0.055740849404013
0.053550586135729
0.051366691188774
0.049296360583439
0.047291375107104
0.04528310020234
0.043240245832406
0.041164358978826
0.039067590863821
0.036958539181321
0.034839797592155
0.032710990856471
0.030571678201429
0.02842236369922
0.026264253727413
0.024098748815952
0.021927160841841
0.019750678633596
0.017570439768169
0.015387585089892
0.013203272333562
0.011018655936834
0.0088348777851595
0.0066530474432248
0.0044742617257591
0.0022995700690166
0.0001300143530443
-0.0020334440710891
-0.0041898198894105
-0.0063382680069133
-0.008477838193633
-0.01060784945105
-0.012727334236466
-0.014835865499423
-0.016932330548898
-0.019016736056754
-0.021087521791151
-0.023145535641634
-0.025188087360541
-0.027217833831385
-0.029229386244492
-0.0312294007482
-0.033206164381214
-0.03517485525892