/*--------------------------------*- C++ -*----------------------------------*\
| =========                 |                                                 |
| \\      /  F ield         | OpenFOAM: The Open Source CFD Toolbox           |
|  \\    /   O peration     | Version:  2112                                  |
|   \\  /    A nd           | Website:  www.openfoam.com                      |
|    \\/     M anipulation  |                                                 |
\*---------------------------------------------------------------------------*/
FoamFile
{
    version     2.0;
    format      ascii;
    arch        "LSB;label=32;scalar=64";
    class       volVectorField;
    location    "16.8";
    object      U;
}
// * * * * * * * * * * * * * * * * * * * * * * * * * * * * * * * * * * * * * //

dimensions      [0 1 -1 0 0 0 0];

internalField   nonuniform List<vector> 
22000
(
(1.0000010409477 -2.6708967054133e-05 0)
(1.00002774878 -8.0310858188174e-05 0)
(1.0000790656116 -0.00013380910188328 0)
(1.0001561657093 -0.00018713499264437 0)
(1.0002594405929 -0.00024014030675944 0)
(1.0003887157827 -0.00029277305317557 0)
(1.0005436316331 -0.0003450570422849 0)
(1.0007238797694 -0.00039701293095174 0)
(1.0009292367814 -0.00044860725948479 0)
(1.0011595322448 -0.00049979720798201 0)
(1.0014145830237 -0.00055051895894339 0)
(1.0016941938172 -0.00060075787146583 0)
(1.0019981184738 -0.00065045524595061 0)
(1.0023261224243 -0.00069963900860001 0)
(1.0026779127262 -0.00074821028312087 0)
(1.0030532539712 -0.00079625973345693 0)
(1.003451802195 -0.00084358146434864 0)
(1.0038733404892 -0.00089040873106308 0)
(1.0043174291839 -0.00093629098693678 0)
(1.0047839023027 -0.00098179942361554 0)
(1.0052721404189 -0.0010259322212859 0)
(1.0057821098743 -0.0010700584416813 0)
(1.0063128567646 -0.0011119240146575 0)
(1.0068646613414 -0.0011547624514024 0)
(1.0074359420076 -0.0011934633206402 0)
(1.0080276837545 -0.0012355872489193 0)
(1.0086371229861 -0.0012694719085384 0)
(1.0092667452025 -0.0013126341093065 0)
(1.009911540186 -0.0013383209473714 0)
(1.0105770714376 -0.0013868643102102 0)
(1.000000462589 -7.842557144366e-05 0)
(1.0000269408376 -0.00023602411209585 0)
(1.0000781312342 -0.00039349480834019 0)
(1.0001551577263 -0.00055057453796915 0)
(1.0002584674045 -0.00070677641410144 0)
(1.0003879592685 -0.00086193183123908 0)
(1.000543319048 -0.0010161172463163 0)
(1.0007242674634 -0.0011694006689004 0)
(1.0009305902167 -0.0013216849515891 0)
(1.0011621390571 -0.0014728408289451 0)
(1.0014187333702 -0.0016226778423163 0)
(1.001700215727 -0.0017711500108795 0)
(1.0020063321644 -0.0019180860371424 0)
(1.0023369136232 -0.0020635672122301 0)
(1.0026916285818 -0.0022073097088804 0)
(1.0030703624172 -0.002349577331084 0)
(1.0034726611409 -0.0024897776607914 0)
(1.0038985440661 -0.0026285817179259 0)
(1.0043472980801 -0.0027646907505549 0)
(1.0048192380995 -0.0028997411079073 0)
(1.0053131108968 -0.0030308526465006 0)
(1.0058298937815 -0.0031619412268389 0)
(1.0063672177237 -0.0032865501694147 0)
(1.006927524898 -0.0034139094983208 0)
(1.0075061336685 -0.0035294345799532 0)
(1.0081086791693 -0.0036546527043594 0)
(1.0087256846739 -0.0037564050477263 0)
(1.009369648866 -0.003884415231738 0)
(1.0100211816484 -0.0039628998121695 0)
(1.0107074603948 -0.0041059400061417 0)
(1.0000004817206 -0.00012749542045795 0)
(1.0000275883093 -0.00038393856413885 0)
(1.0000798974317 -0.00064037239206548 0)
(1.0001584416588 -0.00089632666893488 0)
(1.0002636093526 -0.0011509495939268 0)
(1.0003952964626 -0.0014039525495471 0)
(1.0005532115544 -0.0016554793970011 0)
(1.0007371178477 -0.0019056628027747 0)
(1.0009468266915 -0.0021543536709351 0)
(1.0011822339032 -0.0024013460102662 0)
(1.0014431700433 -0.0026463289549192 0)
(1.0017295404363 -0.0028892347795273 0)
(1.0020410844437 -0.0031297857898225 0)
(1.002377739905 -0.0033681330900664 0)
(1.0027391233391 -0.0036038152778742 0)
(1.0031253167969 -0.0038372942591884 0)
(1.0035357023002 -0.0040675874526054 0)
(1.0039706819286 -0.0042958361221421 0)
(1.0044291136919 -0.0045198618528791 0)
(1.0049120957516 -0.0047424243336713 0)
(1.0054173480769 -0.0049586844952912 0)
(1.0059475181095 -0.0051752357996553 0)
(1.0064978819231 -0.0053812331989189 0)
(1.0070745268977 -0.005592200007306 0)
(1.0076674709992 -0.005783644696287 0)
(1.0082903803943 -0.005991728567755 0)
(1.0089219597793 -0.0061607907179135 0)
(1.0095924869683 -0.0063742746059047 0)
(1.010256451836 -0.0065050588964509 0)
(1.0109807151662 -0.0067444289671637 0)
(1.0000004862447 -0.00017471386452233 0)
(1.000028154148 -0.00052626112586378 0)
(1.0000815438163 -0.00087785635565567 0)
(1.0001616866339 -0.0012288772258496 0)
(1.0002689446041 -0.0015781309282663 0)
(1.0004032006014 -0.0019252371668149 0)
(1.0005641679534 -0.0022704416019068 0)
(1.0007516508993 -0.0026139730429505 0)
(1.0009654909739 -0.0029556528046977 0)
(1.0012056469598 -0.0032952194861297 0)
(1.001471967729 -0.003632256734908 0)
(1.0017644485474 -0.0039666963089914 0)
(1.0020828211175 -0.0042981661096274 0)
(1.0024271752356 -0.0046269172768453 0)
(1.0027970578524 -0.0049523198723312 0)
(1.0031928308225 -0.0052750771324014 0)
(1.0036136518389 -0.0055938028031066 0)
(1.0040604648871 -0.0059101672606355 0)
(1.0045315343571 -0.0062210479475556 0)
(1.0050290613914 -0.0065304361816217 0)
(1.0055493366838 -0.0068313779509888 0)
(1.006097352018 -0.0071333840810856 0)
(1.0066650990802 -0.0074208727795472 0)
(1.007263771139 -0.0077161944644325 0)
(1.0078759910349 -0.0079841627421885 0)
(1.0085266629594 -0.008276746725645 0)
(1.0091780130519 -0.0085140016670912 0)
(1.0098851795186 -0.0088156895453718 0)
(1.0105662670737 -0.0089993715488485 0)
(1.0113435456386 -0.0093393396498986 0)
(1.000000488415 -0.00022011022606831 0)
(1.0000286831412 -0.00066316968812269 0)
(1.0000830970306 -0.0011063141591207 0)
(1.0001647755785 -0.001548790230025 0)
(1.0002740666457 -0.0019890730201581 0)
(1.0004108460286 -0.0024267279062332 0)
(1.0005748332323 -0.0028621546488262 0)
(1.0007658819772 -0.0032957233577416 0)
(1.0009838717258 -0.0037272542610546 0)
(1.0012288437274 -0.0041564555998542 0)
(1.0015006749444 -0.004582822551838 0)
(1.0017994798261 -0.0050063124676798 0)
(1.0021249865002 -0.0054264735790886 0)
(1.0024774826583 -0.0058436956611278 0)
(1.0028564351825 -0.0062571915076617 0)
(1.0032625663242 -0.0066679616388736 0)
(1.0036947618177 -0.0070741987638552 0)
(1.0041546570164 -0.0074781793616526 0)
(1.0046397837165 -0.0078757534314261 0)
(1.0051537390273 -0.0082722852568459 0)
(1.0056910374152 -0.0086585029417642 0)
(1.0062596211643 -0.0090471462611306 0)
(1.0068473895525 -0.0094174429140749 0)
(1.0074719383743 -0.0097992639808082 0)
(1.0081066703159 -0.010145705867827 0)
(1.0087905437552 -0.010526074493017 0)
(1.0094652410461 -0.01083384321909 0)
(1.0102169241017 -0.011228478966307 0)
(1.0109183546983 -0.011467118855578 0)
(1.0117608250105 -0.011914593704854 0)
(1.0000004870297 -0.00026361960771604 0)
(1.0000291048395 -0.0007944932053682 0)
(1.0000843451624 -0.0013254943604977 0)
(1.0001672657996 -0.0018557614209041 0)
(1.000278201105 -0.0023834377817028 0)
(1.0004170250894 -0.002908069924114 0)
(1.0005834706004 -0.0034302688873306 0)
(1.0007774544259 -0.0039505971794093 0)
(1.0009989050524 -0.0044689061203801 0)
(1.0012479664126 -0.0049849016288901 0)
(1.0015245553607 -0.0054980095672731 0)
(1.001828935006 -0.0060082429651106 0)
(1.0021608383323 -0.006515088173299 0)
(1.0025207962219 -0.0070191189003824 0)
(1.0029081927017 -0.0075194053789635 0)
(1.0033241865434 -0.0080173108115495 0)
(1.0037673584201 -0.0085105896139204 0)
(1.0042401709999 -0.0090022134167788 0)
(1.0047393144357 -0.0094869134590833 0)
(1.005270040178 -0.0099715880518151 0)
(1.0058248035047 -0.010444422356644 0)
(1.0064150192825 -0.010921736699912 0)
(1.0070238264458 -0.011377063339995 0)
(1.0076763222149 -0.011848572043292 0)
(1.0083351722478 -0.012276503760294 0)
(1.0090557512655 -0.012749208810595 0)
(1.0097558215273 -0.013131019795918 0)
(1.0105577053895 -0.01362487619547 0)
(1.0112814172543 -0.013921801569949 0)
(1.0121985955631 -0.014485516218369 0)
(1.0000004800679 -0.00030508787573 0)
(1.0000293253052 -0.00091977757820351 0)
(1.0000850167267 -0.0015346500219302 0)
(1.0001686236625 -0.0021487618553692 0)
(1.000280468611 -0.0027599230714814 0)
(1.0004204290247 -0.003367697590627 0)
(1.0005882583509 -0.0039729691063531 0)
(1.0007839499887 -0.0045765483471684 0)
(1.0010074933255 -0.0051783536337932 0)
(1.0012591545917 -0.0057781200506946 0)
(1.0015389035343 -0.0063752265515929 0)
(1.0018471801791 -0.0069697760595229 0)
(1.0021837343024 -0.0075612150979372 0)
(1.0025493829446 -0.0081503525348661 0)
(1.0029434321895 -0.0087361362435592 0)
(1.0033675469924 -0.0093203647943599 0)
(1.0038199857312 -0.0099003418686918 0)
(1.0043041575171 -0.010479830441419 0)
(1.0048158354552 -0.011052354156346 0)
(1.0053621427082 -0.011626513974528 0)
(1.0059332650874 -0.012187727162185 0)
(1.0065445159272 -0.012756255972456 0)
(1.0071737643539 -0.013299429356712 0)
(1.007854486093 -0.013864506492876 0)
(1.0085374443352 -0.014377725809059 0)
(1.0092962885264 -0.014948204290224 0)
(1.0100222621582 -0.015408556491749 0)
(1.0108778567368 -0.016008975910341 0)
(1.0116246580152 -0.016368656113344 0)
(1.0126234594801 -0.017058565747905 0)
(1.0000004661138 -0.00034428734289519 0)
(1.0000292593066 -0.001038343892413 0)
(1.0000848608523 -0.0017326503442565 0)
(1.0001683548678 -0.002426209126251 0)
(1.0002800548858 -0.0031164964203367 0)
(1.0004198457365 -0.0038031335085696 0)
(1.0005875078359 -0.0044873428965492 0)
(1.0007831236173 -0.0051702436121591 0)
(1.0010067554086 -0.0058518605436996 0)
(1.0012588101467 -0.0065319926883597 0)
(1.0015393244187 -0.007209998158438 0)
(1.0018489411597 -0.0078861076234646 0)
(1.002187441817 -0.0085597546565526 0)
(1.002555968425 -0.0092320389392837 0)
(1.0029537615602 -0.0099018129072773 0)
(1.0033830531542 -0.010571387533625 0)
(1.0038417790655 -0.011237611936098 0)
(1.004334393478 -0.011905138318915 0)
(1.0048557142617 -0.012566205892373 0)
(1.0054149060546 -0.013231282355842 0)
(1.0059997563385 -0.013882813126137 0)
(1.0066297931308 -0.014545345295042 0)
(1.0072772850071 -0.015179539004969 0)
(1.0079847148461 -0.015842482079188 0)
(1.008690167079 -0.016445354400859 0)
(1.0094868680239 -0.017119633465342 0)
(1.0102377963767 -0.017663840978842 0)
(1.0111483839379 -0.018378905099746 0)
(1.0119179707583 -0.01880692866317 0)
(1.013002592848 -0.019633804327763 0)
(1.0000004439 -0.00038094285041137 0)
(1.0000288343106 -0.0011493662542109 0)
(1.0000836725275 -0.0019181163627465 0)
(1.0001660528521 -0.0026861694898723 0)
(1.0002762785901 -0.0034506696475561 0)
(1.0004142448602 -0.0042113380330448 0)
(1.000579765722 -0.0049698046152667 0)
(1.0007730245621 -0.0057275587601894 0)
(1.0009941690249 -0.006484774024122 0)
(1.0012437634826 -0.0072413506625946 0)
(1.001521925725 -0.0079966559148243 0)
(1.0018295240981 -0.0087510888693644 0)
(1.0021663889556 -0.0095041022471817 0)
(1.0025340200794 -0.01025714488001 0)
(1.0029316120358 -0.011009008706433 0)
(1.003362012645 -0.011762595272318 0)
(1.0038228525762 -0.012514308038254 0)
(1.0043197046897 -0.01326978211364 0)
(1.0048464338133 -0.014019917807773 0)
(1.0054143606742 -0.014777196213731 0)
(1.0060088348725 -0.015520930743272 0)
(1.0066537924848 -0.016280247716922 0)
(1.0073157652596 -0.017008764629159 0)
(1.0080465977274 -0.017774017019006 0)
(1.0087713439315 -0.018471268689494 0)
(1.0096035014878 -0.019255669890879 0)
(1.0103769566042 -0.019889710998111 0)
(1.0113415235832 -0.020727895781501 0)
(1.012132468032 -0.021230937810477 0)
(1.0133042742977 -0.022205904535957 0)
(1.0000004124499 -0.00041475739358186 0)
(1.000027992444 -0.0012519484317745 0)
(1.0000812833665 -0.0020895521156499 0)
(1.0001613800267 -0.0029265472881873 0)
(1.0002685724188 -0.0037597485324688 0)
(1.0004027683933 -0.0045890195519264 0)
(1.0005638223421 -0.0054164659306155 0)
(1.0007520282 -0.0062440088383251 0)
(1.0009676291057 -0.0070720135452119 0)
(1.0012113595834 -0.0079005198429542 0)
(1.0014834329349 -0.0087289372756197 0)
(1.0017849613506 -0.0095578758588461 0)
(1.0021158431157 -0.010386845337967 0)
(1.0024779604362 -0.011217702925549 0)
(1.002870487662 -0.012049224357362 0)
(1.0032969225115 -0.012884977744436 0)
(1.0037546251129 -0.013720946710776 0)
(1.0042503310986 -0.014563832632154 0)
(1.0047769962158 -0.015403175240275 0)
(1.005348149996 -0.016253585091361 0)
(1.0059467591273 -0.017091150143303 0)
(1.0066012263179 -0.017949791639189 0)
(1.0072724179686 -0.018775851277219 0)
(1.0080215999607 -0.01964774294956 0)
(1.0087608917215 -0.020444260894866 0)
(1.00962411532 -0.021345107329613 0)
(1.0104162006504 -0.022075467119809 0)
(1.0114313978905 -0.023045291271914 0)
(1.0122411343516 -0.023631056269254 0)
(1.0134985796672 -0.024765122585907 0)
(1.0000003714281 -0.00044544118664829 0)
(1.0000266896506 -0.0013452139112484 0)
(1.0000775648144 -0.0022454930956305 0)
(1.0001540791367 -0.0031452880922638 0)
(1.0002565043527 -0.0040410874777701 0)
(1.0003847625446 -0.0049329385991631 0)
(1.0005387541927 -0.0058234883479219 0)
(1.0007188907227 -0.0067151487480731 0)
(1.0009255189818 -0.0076085196851917 0)
(1.001159551375 -0.0085038182368452 0)
(1.0014213080106 -0.0094005316682885 0)
(1.0017121560021 -0.010299523199429 0)
(1.0020320815673 -0.011200402899554 0)
(1.0023833648279 -0.012105494598624 0)
(1.0027651912939 -0.013013612679138 0)
(1.0031817251652 -0.01392906213857 0)
(1.0036301072195 -0.014847453314801 0)
(1.0041182467069 -0.015776620559335 0)
(1.0046382761003 -0.01670476393997 0)
(1.0052059191873 -0.017648695731255 0)
(1.0058019110121 -0.018581273581954 0)
(1.0064590378769 -0.019541321070603 0)
(1.0071327837242 -0.020467858814909 0)
(1.0078935908814 -0.021450355312803 0)
(1.0086411980699 -0.022350987093481 0)
(1.0095291484235 -0.023374310492545 0)
(1.0103345269081 -0.024207811631612 0)
(1.0113946735152 -0.02531748068262 0)
(1.0122194825092 -0.025994620454437 0)
(1.0135580856774 -0.027298210621977 0)
(1.0000003204479 -0.00047273520236282 0)
(1.0000248985998 -0.0014283758027459 0)
(1.0000724356539 -0.0023846220490325 0)
(1.0001439860606 -0.0033405396737617 0)
(1.0002397975933 -0.0042922952486069 0)
(1.0003598063602 -0.0052401581028092 0)
(1.0005039629616 -0.006187377486858 0)
(1.0006727994194 -0.007136910858765 0)
(1.0008667713547 -0.0080896343739062 0)
(1.0010869711708 -0.00904597862454 0)
(1.001333834612 -0.010005545789797 0)
(1.0016089866567 -0.01096949243819 0)
(1.0019125192254 -0.011937576729451 0)
(1.0022471136944 -0.012912643248115 0)
(1.0026120026413 -0.013893611032327 0)
(1.0030120142132 -0.014885583176134 0)
(1.0034441360353 -0.015883867303762 0)
(1.0039174261538 -0.016897474623619 0)
(1.0044233192974 -0.017913337805107 0)
(1.0049796491501 -0.018950486744514 0)
(1.0055651641256 -0.019978652372313 0)
(1.0062168071542 -0.02104153229209 0)
(1.0068851710533 -0.022071011696041 0)
(1.0076493263647 -0.023167475353492 0)
(1.008397631412 -0.024176831781062 0)
(1.0093021049994 -0.025328085570549 0)
(1.0101140468655 -0.02627170933481 0)
(1.0112111820937 -0.027528764094685 0)
(1.0120461708769 -0.028306769703376 0)
(1.0134585499968 -0.029789266452745 0)
(1.0000002598836 -0.000496428428552 0)
(1.0000226089281 -0.0015007892079143 0)
(1.0000658646933 -0.0025058564542212 0)
(1.0001310362877 -0.0035107752594913 0)
(1.0002183401246 -0.0045113943484912 0)
(1.0003277247641 -0.0055082391647263 0)
(1.0004591928407 -0.006505215850366 0)
(1.0006133956297 -0.0075058754437355 0)
(1.000790898796 -0.0085114093318331 0)
(1.0009929703631 -0.0095224947022938 0)
(1.0012201669262 -0.010538886723225 0)
(1.0014743655913 -0.011562072056237 0)
(1.0017557797494 -0.012592008780749 0)
(1.0020674814168 -0.013632109552513 0)
(1.0024087869718 -0.01468147451399 0)
(1.0027851653307 -0.015746052994802 0)
(1.0031935300213 -0.016820947010724 0)
(1.0036440264529 -0.017916360057372 0)
(1.0041275529375 -0.019018088161993 0)
(1.004663899038 -0.020147327320951 0)
(1.0052301579999 -0.021270910372244 0)
(1.0058670633187 -0.022437221157486 0)
(1.0065210009756 -0.023571462589906 0)
(1.007278833837 -0.02478443129605 0)
(1.0080189577601 -0.025906694383471 0)
(1.0089300189711 -0.027190479753804 0)
(1.0097404693122 -0.028251178742022 0)
(1.0108644602654 -0.029662155898815 0)
(1.0117035464564 -0.030551222272991 0)
(1.013179522632 -0.032220529574186 0)
(1.000000190027 -0.00051637019038036 0)
(1.0000198281038 -0.0015619885940773 0)
(1.0000578707539 -0.0026084115908699 0)
(1.0001152628607 -0.0036548825743094 0)
(1.0001921817915 -0.0046969363964906 0)
(1.0002885848982 -0.0057353833041618 0)
(1.0004045262925 -0.0067748325699253 0)
(1.0005407705045 -0.0078194688808971 0)
(1.0006979902231 -0.0088708338686512 0)
(1.0008776178057 -0.0099298798579873 0)
(1.0010803314939 -0.010996552811145 0)
(1.0013082453877 -0.012072700981777 0)
(1.0015617067263 -0.013158537426081 0)
(1.0018441541396 -0.014258081498091 0)
(1.0021550240855 -0.01537070075755 0)
(1.0025003802453 -0.016503221969999 0)
(1.0028771496083 -0.017650665586262 0)
(1.00329646782 -0.018824409601324 0)
(1.0037488879238 -0.020009307567577 0)
(1.0042559353607 -0.021228593805595 0)
(1.0047934543746 -0.022446568827017 0)
(1.0054054742143 -0.023715936997062 0)
(1.0060350282015 -0.024955967022944 0)
(1.0067756757142 -0.026286957075176 0)
(1.0074976327322 -0.027525697089778 0)
(1.0084037925552 -0.02894550841723 0)
(1.009203464843 -0.030130012558318 0)
(1.0103421695393 -0.031700125545556 0)
(1.011178073731 -0.032710988245372 0)
(1.0127048470444 -0.034573125156344 0)
(1.00000011194 -0.00053247744243782 0)
(1.000016579012 -0.0016117104652127 0)
(1.0000485184494 -0.0026918384874743 0)
(1.0000967904581 -0.0037722176586936 0)
(1.000161524311 -0.0048480723005437 0)
(1.0002426812914 -0.0059205197242546 0)
(1.0003403638957 -0.0069949090528844 0)
(1.0004554389994 -0.0080760892007871 0)
(1.0005886788835 -0.0091659819768262 0)
(1.0007416620979 -0.010265837626494 0)
(1.0009151844905 -0.011375829238261 0)
(1.0011115725514 -0.012498191316877 0)
(1.001331315251 -0.013633448751107 0)
(1.0015781800828 -0.014786255320788 0)
(1.0018517578706 -0.015956341438892 0)
(1.0021586401086 -0.017151423163403 0)
(1.0024958583744 -0.018366589603473 0)
(1.0028754064182 -0.019614337889836 0)
(1.0032877053814 -0.020878838416437 0)
(1.003755737084 -0.022185154051945 0)
(1.0042545620442 -0.023495562289385 0)
(1.0048308989459 -0.02486653290171 0)
(1.0054254191013 -0.026212459453621 0)
(1.0061370628455 -0.02766180033806 0)
(1.0068299469391 -0.029019807865072 0)
(1.0077183876174 -0.030577806667356 0)
(1.0084968813945 -0.031892425634327 0)
(1.0096363650828 -0.033625273264411 0)
(1.0104606192463 -0.034769017956472 0)
(1.0120230056707 -0.036827753196189 0)
(1.0000000264079 -0.00054473740959648 0)
(1.0000128991847 -0.0016499013784793 0)
(1.0000379134517 -0.0027560380968844 0)
(1.0000758237859 -0.0038626256668332 0)
(1.0001267025724 -0.0049645802782055 0)
(1.000190508375 -0.0060633414996049 0)
(1.0002673866685 -0.0071650244243002 0)
(1.0003582914296 -0.0082751625258676 0)
(1.0004640825593 -0.0093960817835099 0)
(1.0005864601571 -0.010529346581053 0)
(1.000726328652 -0.011675390801519 0)
(1.0008861934379 -0.012836851996065 0)
(1.0010666877275 -0.014014623619644 0)
(1.0012718570115 -0.015214009253165 0)
(1.0015014764375 -0.016435203953804 0)
(1.0017625789314 -0.017686804388496 0)
(1.0020523924505 -0.018964142429154 0)
(1.0023836054293 -0.020280740310295 0)
(1.0027467320039 -0.021620406167888 0)
(1.0031658803111 -0.023009738484051 0)
(1.0036158330693 -0.02440964280582 0)
(1.0041453014598 -0.025879608027624 0)
(1.0046936848512 -0.027330524136666 0)
(1.0053638178749 -0.028897232114653 0)
(1.0060160150804 -0.030376371203883 0)
(1.006872856336 -0.032073199924541 0)
(1.0076188086788 -0.03352362840317 0)
(1.0087436067444 -0.035420940785532 0)
(1.0095465832465 -0.036708782236976 0)
(1.0111273026123 -0.038965314916598 0)
(0.99999993514284 -0.00055320559326951 0)
(1.0000088370732 -0.0016767154074698 0)
(1.0000261938885 -0.0028012559957008 0)
(1.0000526336524 -0.0039264326905422 0)
(1.0000881617371 -0.0050468559766529 0)
(1.0001327268486 -0.0061642958352122 0)
(1.000186509867 -0.0072856480364198 0)
(1.0002505324184 -0.00841713979572 0)
(1.0003257258941 -0.009561518055095 0)
(1.0004138816903 -0.010720670475722 0)
(1.0005159988604 -0.011895321396441 0)
(1.0006347207432 -0.013088520450731 0)
(1.000770821509 -0.01430158404595 0)
(1.0009285626712 -0.015540469068518 0)
(1.0011079270422 -0.016805938970065 0)
(1.0013162857199 -0.01810744309461 0)
(1.0015511501667 -0.019440747073419 0)
(1.0018257153331 -0.020820270196042 0)
(1.0021308154971 -0.022229830396863 0)
(1.0024913142576 -0.023697193403416 0)
(1.0028822422385 -0.025182668802457 0)
(1.0033535394479 -0.026747841785845 0)
(1.0038444802355 -0.028301759437717 0)
(1.0044601890547 -0.02998345626472 0)
(1.0050596109575 -0.031584539434551 0)
(1.0058702088194 -0.033419188213728 0)
(1.006571481341 -0.035010324838321 0)
(1.007664912727 -0.037071768718931 0)
(1.008435891095 -0.038514799761322 0)
(1.0100158868323 -0.040967495007468 0)
(0.99999983988 -0.00055800154473473 0)
(1.000004449802 -0.0016924947687095 0)
(1.0000135249907 -0.0028280510390727 0)
(1.000027542657 -0.0039644050479743 0)
(1.0000464320893 -0.0050958625806822 0)
(1.0000701252884 -0.0062245244541134 0)
(1.0000988289652 -0.0073580712268816 0)
(1.0001336098267 -0.0085034233599597 0)
(1.0001754505492 -0.0096637578469917 0)
(1.0002261991792 -0.010841287388094 0)
(1.0002869301634 -0.012037049912074 0)
(1.000360378222 -0.01325450879211 0)
(1.0004474485286 -0.014495451207986 0)
(1.0005525490723 -0.015766481718523 0)
(1.0006758845876 -0.01706903019946 0)
(1.0008250496521 -0.018413358777656 0)
(1.0009979150825 -0.019795859837778 0)
(1.0012079777394 -0.021231703446956 0)
(1.001446609682 -0.022705114191212 0)
(1.0017390355748 -0.024244613273977 0)
(1.0020610554466 -0.0258107675849 0)
(1.0024630350423 -0.027466213562692 0)
(1.0028852828067 -0.029120026524555 0)
(1.0034335396289 -0.030912919842991 0)
(1.0039678646971 -0.032635594524575 0)
(1.0047171163667 -0.034605328753072 0)
(1.0053610133191 -0.036341107125777 0)
(1.0064055381556 -0.038564189788377 0)
(1.0071328434358 -0.040173137355845 0)
(1.0086916461643 -0.042817351348745 0)
(0.99999973925835 -0.00055930180394737 0)
(0.99999980798863 -0.0016977445329699 0)
(1.0000000927991 -0.0028372661756641 0)
(1.0000009042093 -0.0039777161451508 0)
(1.0000020930636 -0.0051130916386765 0)
(1.0000035672206 -0.0062458172116425 0)
(1.0000055477946 -0.0073843516970959 0)
(1.0000091218952 -0.0085362994183885 0)
(1.0000153005783 -0.0097052694427637 0)
(1.0000259508175 -0.010893795685252 0)
(1.0000421971931 -0.012103245709562 0)
(1.0000668163212 -0.013337492992353 0)
(1.000100826027 -0.014598831802251 0)
(1.0001487087419 -0.015894505066367 0)
(1.0002108909094 -0.017226689373618 0)
(1.0002950744055 -0.018606423120458 0)
(1.0003995419572 -0.020030892537157 0)
(1.0005378889285 -0.021515890644567 0)
(1.0007022090166 -0.023046409695855 0)
(1.000917701147 -0.024651351771319 0)
(1.0011614145062 -0.026292354230984 0)
(1.0014833496227 -0.028032095352334 0)
(1.0018259598872 -0.029781545319379 0)
(1.0022939276286 -0.031680520476786 0)
(1.002750860098 -0.033523134149916 0)
(1.0034234971217 -0.035623519191986 0)
(1.0039969687623 -0.037506666797339 0)
(1.0049745219062 -0.039886745321159 0)
(1.0056457568253 -0.041671794363992 0)
(1.0071619585166 -0.044499872373839 0)
(0.99999963968463 -0.0005573206409445 0)
(0.99999496174238 -0.0016931234951949 0)
(0.99998606851433 -0.0028299846161642 0)
(0.99997307824226 -0.0039678666835005 0)
(0.99995575245729 -0.0051004574333425 0)
(0.99993396695257 -0.0062304880722118 0)
(0.99990794388273 -0.0073671793447134 0)
(0.99987876581706 -0.0085187990853252 0)
(0.99984744879447 -0.009689381376132 0)
(0.99981583981273 -0.010881772561509 0)
(0.99978508463683 -0.012097681012 0)
(0.99975795225723 -0.013341380451717 0)
(0.9997355455553 -0.014615692469034 0)
(0.99972235148471 -0.01592848747507 0)
(0.9997189974782 -0.017282740188893 0)
(0.99973318847136 -0.018690250075136 0)
(0.999763630233 -0.02014910425479 0)
(0.99982384635614 -0.021675667381547 0)
(0.9999067575281 -0.023255926663328 0)
(1.0000372212405 -0.024918978990265 0)
(1.0001938817892 -0.026628062901104 0)
(1.0004257158089 -0.028445284548032 0)
(1.0006782422405 -0.030284849748941 0)
(1.0010535989653 -0.032283782292737 0)
(1.0014211334918 -0.034243112128624 0)
(1.0020020800067 -0.036468380404652 0)
(1.0024919224571 -0.038499830364771 0)
(1.0033840699254 -0.041030250051228 0)
(1.0039862857372 -0.043000543125409 0)
(1.0054381163333 -0.046001969792565 0)
(0.99999953902289 -0.00055230634765339 0)
(0.99998997195826 -0.0016793492367156 0)
(0.99997161763449 -0.0028074161929303 0)
(0.99994439629764 -0.0039365691534419 0)
(0.99990798152497 -0.0050601808508907 0)
(0.99986220358862 -0.006181256561462 0)
(0.99980726827734 -0.0073097560593166 0)
(0.9997442268778 -0.0084545801380399 0)
(0.99967407540519 -0.0096201670670024 0)
(0.99959859228518 -0.010809658581008 0)
(0.99951892101723 -0.01202511951283 0)
(0.99943777545529 -0.013271205097317 0)
(0.99935631731359 -0.014551277559528 0)
(0.9992789614044 -0.015873810651432 0)
(0.99920650205166 -0.01724260486743 0)
(0.99914654811313 -0.018670214038269 0)
(0.99909819833902 -0.020155664790709 0)
(0.99907478129309 -0.021715940430337 0)
(0.99907004043799 -0.023338041859577 0)
(0.99910832159733 -0.025051417552207 0)
(0.99916994721806 -0.026820846128973 0)
(0.99930254496145 -0.028708188501231 0)
(0.99945510795456 -0.030630761708247 0)
(0.99972639253098 -0.032723130233244 0)
(0.99999292679519 -0.034793613737694 0)
(1.0004679178841 -0.03713798694389 0)
(1.0008611515709 -0.039315369376803 0)
(1.0016493901288 -0.041988791630706 0)
(1.0021690301164 -0.044149555442237 0)
(1.0035343305149 -0.047311039246708 0)
(0.99999943511005 -0.00054453148350746 0)
(0.99998488021333 -0.0016572180096821 0)
(0.99995687355594 -0.0027708586431957 0)
(0.99991513971782 -0.0038856139006197 0)
(0.99985928190519 -0.0049945633027831 0)
(0.99978906772171 -0.0061009394924198 0)
(0.99970466086686 -0.0072154082391487 0)
(0.99960706409625 -0.0083474709174968 0)
(0.9994972348902 -0.0095019542692716 0)
(0.99937680330974 -0.010682265129072 0)
(0.99924690014275 -0.011890833171517 0)
(0.99911012449938 -0.013132644512916 0)
(0.9989677056835 -0.014411631883798 0)
(0.99882387095948 -0.015736807285663 0)
(0.99867959615091 -0.017112854654028 0)
(0.99854222516448 -0.018553011523221 0)
(0.99841128095111 -0.020057310053126 0)
(0.99829968876318 -0.021643357114765 0)
(0.99820205774349 -0.023299109892176 0)
(0.99814202656825 -0.025054706820666 0)
(0.99810158132148 -0.026875853294827 0)
(0.99812690621802 -0.028825572395031 0)
(0.99817029457475 -0.030822001392323 0)
(0.99832719387128 -0.033001445951047 0)
(0.99848129856005 -0.035173396977005 0)
(0.99883756876512 -0.037633510092263 0)
(0.99912180789772 -0.03994736351771 0)
(0.99978951434088 -0.042762306737508 0)
(1.0002135401592 -0.045106119973644 0)
(1.0014675510702 -0.048414637887674 0)
(0.99999932474983 -0.00053434580401513 0)
(0.99997978768312 -0.0016277268217416 0)
(0.99994207454841 -0.0027218357847366 0)
(0.99988569788829 -0.0038169755313835 0)
(0.99981023424394 -0.004906014762711 0)
(0.99971540033095 -0.0059923701167231 0)
(0.99960127205867 -0.0070873696887478 0)
(0.99946876955549 -0.0082009665611577 0)
(0.99931880983758 -0.0093384554377181 0)
(0.99915280377141 -0.010503569221854 0)
(0.99897189642609 -0.011699094208145 0)
(0.99877846453324 -0.012930234093856 0)
(0.99857386105609 -0.01420154216174 0)
(0.99836191739093 -0.01552241925509 0)
(0.99814395096769 -0.01689857629698 0)
(0.99792666437879 -0.018343693871565 0)
(0.99771035552235 -0.019859133532625 0)
(0.99750689091647 -0.021462789656899 0)
(0.99731243493032 -0.02314400293724 0)
(0.99714884073062 -0.024933322366643 0)
(0.99700089849433 -0.026797384986478 0)
(0.99691179088282 -0.02880128687995 0)
(0.99683856295979 -0.030861315654302 0)
(0.99687158186297 -0.033121878921899 0)
(0.99690291942236 -0.035381060348847 0)
(0.99712833164643 -0.037958732049817 0)
(0.99729164246514 -0.040386517805142 0)
(0.99782573710272 -0.043364702554587 0)
(0.99814874168155 -0.045854128771098 0)
(0.99926260705014 -0.049340054525379 0)
(0.99999919842897 -0.00052228075148824 0)
(0.9999749189474 -0.0015924904232415 0)
(0.99992772172535 -0.0026627618251651 0)
(0.99985676793833 -0.0037336514696709 0)
(0.99976170122163 -0.0047979562062871 0)
(0.9996422693691 -0.0058591927618133 0)
(0.99949853827097 -0.0069296082950972 0)
(0.99933121386648 -0.0080190408122545 0)
(0.99914093330626 -0.0091332260061455 0)
(0.99892894934081 -0.010276458696552 0)
(0.99869660534705 -0.011452003262336 0)
(0.99844594001165 -0.012665234966522 0)
(0.99817848429324 -0.013921433179359 0)
(0.99789742042347 -0.015230248731725 0)
(0.99760465961573 -0.016598642285214 0)
(0.99730566917864 -0.018040333641467 0)
(0.99700221198993 -0.01955870711824 0)
(0.9967038209082 -0.021171133456211 0)
(0.99641002758733 -0.022869905766229 0)
(0.99613802050906 -0.024684210851044 0)
(0.99587956027361 -0.026584444393241 0)
(0.99566856497326 -0.028634839965344 0)
(0.99547555074115 -0.030753038890813 0)
(0.99537334308266 -0.033090865184504 0)
(0.99527837231912 -0.035429129497917 0)
(0.99535510340377 -0.03813503265669 0)
(0.99539185250825 -0.040647006270831 0)
(0.99576653058271 -0.043857821653675 0)
(0.99600522424932 -0.046393675412783 0)
(0.99694387733774 -0.050305935772361 0)
(0.99999900150269 -0.00050947701266735 0)
(0.99997011718928 -0.0015549692783558 0)
(0.9999139203148 -0.0026001043616724 0)
(0.99982867097787 -0.0036455936093539 0)
(0.99971424090774 -0.0046837414471329 0)
(0.99957026715856 -0.0057177675272924 0)
(0.99939726205668 -0.0067612072729326 0)
(0.99919596881239 -0.0078242353447236 0)
(0.99896591496211 -0.0089127097725157 0)
(0.99870810037888 -0.010030885077249 0)
(0.99842431975873 -0.01118261777281 0)
(0.99811632787648 -0.012373770913232 0)
(0.99778578430312 -0.013610611108879 0)
(0.99743518721619 -0.014903301293454 0)
(0.99706712457321 -0.016260528788918 0)