/*--------------------------------*- C++ -*----------------------------------*\
| =========                 |                                                 |
| \\      /  F ield         | OpenFOAM: The Open Source CFD Toolbox           |
|  \\    /   O peration     | Version:  2112                                  |
|   \\  /    A nd           | Website:  www.openfoam.com                      |
|    \\/     M anipulation  |                                                 |
\*---------------------------------------------------------------------------*/
FoamFile
{
    version     2.0;
    format      ascii;
    arch        "LSB;label=32;scalar=64";
    class       volScalarField;
    location    "18.6";
    object      p;
}
// * * * * * * * * * * * * * * * * * * * * * * * * * * * * * * * * * * * * * //

dimensions      [0 2 -2 0 0 0 0];

internalField   nonuniform List<scalar> 
22000
(
0.024234992149287
0.024212932303756
0.024167394329507
0.024097203494424
0.024001860889963
0.023881391969548
0.023736063823618
0.023566170940291
0.02337194375883
0.023153558137428
0.022911177930331
0.02264499178536
0.022355223771639
0.022042136009759
0.021706016150405
0.021347184092705
0.020965977065305
0.020562773017377
0.020137958547372
0.019691980410818
0.01922527170926
0.018738366619462
0.018231731110203
0.017706018182406
0.017161686691491
0.016599575110902
0.016020044182816
0.015424253917
0.014812248618978
0.014185769979508
0.024648259520857
0.024625010279877
0.024578009293804
0.024506189474003
0.024409008179788
0.024286413100786
0.024138615131835
0.023965879867351
0.02376842339122
0.023546411234442
0.023299995168972
0.023029350325369
0.02273468485257
0.022416245878691
0.022074303672787
0.02170916413186
0.021321146235553
0.020910617720659
0.020477945637419
0.020023574139411
0.019547912110621
0.019051504271979
0.018534777855298
0.017998421501115
0.017442819966974
0.016868892722915
0.016276843706025
0.015667977405071
0.015041982467327
0.01440078821053
0.025405940801985
0.025381890884738
0.025333349460435
0.02525931747308
0.025159296913412
0.025033236087155
0.024881319124842
0.024703779236604
0.024500803531624
0.024272532774274
0.024019094014496
0.023740637421191
0.023437342630084
0.023109429245628
0.022757135743563
0.022380741667801
0.021980532194093
0.02155685431684
0.021110037857111
0.020640518367155
0.020148658140199
0.019635018285954
0.0190999552086
0.018544226673796
0.01796808751822
0.017372632550397
0.016757797714128
0.016125242502498
0.015474034539657
0.014806634841532
0.026458668067366
0.026433777666115
0.026383534300607
0.026306914814532
0.02620342099135
0.02607300155896
0.025915825832225
0.025732099052442
0.025521972837852
0.025285550536245
0.025022919679082
0.024734191133966
0.024419500931313
0.024079026336662
0.023712956764236
0.023321529523715
0.02290497642509
0.022463608842682
0.021997697409039
0.021507658517511
0.0209937818266
0.020456644654206
0.019896496427132
0.019314184787922
0.018709772037552
0.018084587417783
0.017438168387064
0.016772640535228
0.016086145004719
0.015381824280092
0.027763547163122
0.027737742513878
0.027685637440887
0.027606168106456
0.0274988184957
0.027363525330394
0.027200434836563
0.027009716462978
0.026791475624933
0.026545764229669
0.026272613389609
0.025972076610257
0.025644226589657
0.025289178416537
0.024907050247245
0.024498015994029
0.024062229243032
0.023599944792893
0.0231113462702
0.022596813010759
0.022056529297155
0.021491078986221
0.020900561419355
0.020285922214696
0.019646962696712
0.018985293147558
0.018299929685857
0.017593577424517
0.016863202594652
0.016112828244481
0.029282599984708
0.029255875962443
0.029201893209018
0.029119544604679
0.02900829068606
0.02886804613564
0.028698920744548
0.028501033490627
0.028274427741437
0.028019086623388
0.02773496518761
0.027422038241227
0.02708029144621
0.026709753155415
0.026310443075182
0.025882444959211
0.025425803684912
0.024940689945997
0.024427166294281
0.023885549291322
0.023315878852954
0.022718726490041
0.022093992713368
0.02144272036169
0.020764380879527
0.020060901469188
0.01933066109148
0.018577042344763
0.017795600056031
0.016991387384128
0.030981514662082
0.030953951778817
0.030898248181911
0.030813252850403
0.030698398147217
0.030553566552792
0.030378816743477
0.030174200423509
0.029939680799431
0.029675152675894
0.029380473131826
0.029055514193174
0.028700147542516
0.02831428628271
0.027897820141252
0.027450710746758
0.02697285839968
0.026464315548704
0.025924983313696
0.025355081646393
0.024754460097764
0.024123649313421
0.023462296175182
0.022771526296254
0.022050406448589
0.021301199647131
0.020521529137506
0.019715522686912
0.01887708972459
0.018012404254764
0.03282865363127
0.032800416853676
0.032743319289043
0.032656166267343
0.03253835622279
0.032389728418731
0.032210275666764
0.031999965621647
0.03175866274107
0.031486152757194
0.03118217114748
0.030846460869683
0.030478750142526
0.030078805076303
0.029646350246807
0.029181188529923
0.028683034817596
0.028151782738517
0.027587125321532
0.02698914344499
0.026357443109885
0.025692473868356
0.024993565685277
0.02426189862712
0.023496053580353
0.022698626391336
0.021866363164964
0.021004174947995
0.020104097666155
0.019173460346525
0.034794433696228
0.034765766527059
0.03470776207509
0.03461918125685
0.034499381206322
0.034348147066591
0.034165392275528
0.033950984708086
0.033704671797498
0.033426109095256
0.033114886180385
0.032770589622566
0.032392773356224
0.031981022661904
0.031534859264814
0.031053887016177
0.03053759065197
0.029985658763805
0.029397524144325
0.028773077932135
0.028111622201959
0.027413474042523
0.026677576035257
0.025905117145366
0.025094103697455
0.024247440718961
0.023360873545388
0.02244010075694
0.021475064026078
0.020474212722905
0.036851015459344
0.036822228892003
0.036763946002971
0.036674880329234
0.036554339850439
0.036402046665559
0.036217823295271
0.036001423069395
0.035752458684073
0.035470435114218
0.035154772689534
0.034804874947732
0.034420091058428
0.033999791191014
0.033543255695773
0.033049847140382
0.032518773087965
0.031949466740572
0.031341044477693
0.030693149863146
0.03000471504022
0.02927586174557
0.028505067042647
0.027693468198004
0.026838402359884
0.025943034176684
0.025001982162277
0.024021699669823
0.022989816243927
0.021915787299219
0.038972218897412
0.038943678331925
0.038885854667294
0.038797416163264
0.038677619206623
0.038526115980403
0.038342626773434
0.038126775997668
0.037878025378857
0.037595711078207
0.037279063293735
0.036927278197915
0.036539471933297
0.036114766867582
0.035652164780195
0.035150744839998
0.034609390336818
0.034027226598764
0.033402995476141
0.032736029794758
0.032024821571387
0.03126922478452
0.030467167775384
0.029619657727714
0.028723261700543
0.027781330474117
0.026787227165149
0.025748084477323
0.024649007023957
0.023500252510373
0.041133559183326
0.04110567219431
0.04104912589153
0.040962553956477
0.04084516307521
0.040696530210754
0.040516263969888
0.040303848676178
0.040058582598139
0.039779618381864
0.039465978677107
0.039116631456793
0.038730435298379
0.038306235625139
0.037842722133963
0.037338651125212
0.03679253702606
0.03620314526757
0.03556878574916
0.034888414416283
0.034160011692061
0.033383083033562
0.032554920830726
0.031676309844361
0.030742942645425
0.029758254093875
0.02871422280427
0.027618542194778
0.026453581149537
0.025230098362586
0.043312342618174
0.043285542478469
0.043231145955231
0.043147766345752
0.043034565375133
0.042891041666696
0.042716685418111
0.042510833310756
0.04227261257359
0.042000983670643
0.041694750483317
0.041352637199165
0.040973225582038
0.040555060272585
0.040096491064777
0.03959591700283
0.039051444411169
0.038461430175711
0.037823698653756
0.037136762904014
0.036398021901128
0.035606546998801
0.034758907628166
0.033855558912723
0.032891213006391
0.031869262843831
0.030780174680497
0.029632036697923
0.028404278406721
0.027107753687796
0.04548781721191
0.045462548272122
0.045411198485507
0.045332377325041
0.045225208534552
0.045089112422242
0.044923458001116
0.044727431394439
0.044499986497508
0.044239888579135
0.043945718243032
0.043615948364182
0.043248872803514
0.042842718691254
0.04239547577966
0.041905158735965
0.041369434484474
0.040786209164454
0.040152775247063
0.039467140430848
0.038726058174062
0.037928078216794
0.037068963477412
0.03614872308337
0.035160986299495
0.034108950565072
0.032981448287606
0.031786751435436
0.03050115344773
0.029135090958442
0.047641321002557
0.047618023831854
0.047570611335447
0.047497708164289
0.047398409867153
0.047272061243466
0.047117911337976
0.046934998001652
0.046722105501545
0.046477807563486
0.046200464277298
0.045888297282671
0.045539310574316
0.045151407372812
0.044722207208253
0.04424932250777
0.043729959806016
0.043161541423359
0.042540792226354
0.041865159341
0.041130696409162
0.040335346502351
0.03947399212919
0.038546071823124
0.037544039760229
0.036470722604135
0.035313210294532
0.034079694004744
0.032743152757695
0.031312981302282
0.049756397177073
0.0497354940616
0.049692874802808
0.049627199684712
0.049537547519156
0.049423193583954
0.049283272459596
0.049116681193565
0.048922044279106
0.048697754411512
0.048441961594853
0.048152644788155
0.047827525497891
0.047464186642913
0.047059879617627
0.046611808810812
0.046116711581237
0.045571504887964
0.044972323816125
0.044316010262046
0.043597878502636
0.042815185367566
0.041961874502428
0.04103668455254
0.040030825294343
0.03894654870096
0.037769131237788
0.036506365029208
0.035127746472009
0.033640930200334
0.051818862477367
0.051800745288534
0.051763715124491
0.051706489987899
0.051628145424561
0.051527895228052
0.051404768709601
0.051257534846496
0.051084674268139
0.050884415890235
0.050654717528949
0.050393332359907
0.05009771625358
0.049765146069712
0.049392518839276
0.048976638339104
0.048513779036084
0.048000344520774
0.047431873702564
0.04680457179473
0.046112993286113
0.045353638311142
0.04451947844542
0.043608414399141
0.042610379933894
0.041526811066878
0.040341172577709
0.039060461504048
0.03765062954211
0.03611665462325
0.053816820634881
0.053801839709035
0.053771113676267
0.053723441109514
0.053657908289941
0.05357367786425
0.053469686491719
0.053344592003199
0.053196752233189
0.053024255851997
0.052824893687463
0.052596218241825
0.052335445416304
0.052039570430738
0.051705161198764
0.051328641484334
0.050905843719937
0.050432666992516
0.049904064800923
0.049315589736403
0.048661037552519
0.047936092384042
0.047132756605824
0.046247942079095
0.045270352265418
0.044200249865688
0.043019486786608
0.041733643771322
0.040305315606532
0.038736178852448
0.055740621623971
0.055729078928034
0.055705274431729
0.055668111489047
0.055616702723298
0.055550171373997
0.055467377208583
0.055366887916858
0.0552469632609
0.055105579277955
0.054940390649904
0.054748782138887
0.054527764260827
0.054274085156914
0.053984019116157
0.053653643352844
0.05327838232484
0.052853656834415
0.05237386325556
0.051833906369484
0.05122684252544
0.050547498060736
0.049786937679429
0.048940945540185
0.047997095652193
0.046954119851952
0.045792426289237
0.044515527058353
0.043082749569075
0.041491136498563
0.057582763876413
0.057574912122408
0.057558544415327
0.057532689469286
0.057496500708858
0.057449077203498
0.057389221677066
0.057315436434468
0.057225912711737
0.057118545907289
0.056990888200573
0.056840192542796
0.056663305027034
0.056456771224477
0.056216618141911
0.055938622464406
0.055617846536471
0.055249277736368
0.054826796690013
0.054344696903922
0.053795320006625
0.053172646127616
0.052466788916426
0.051672391858955
0.050775852111496
0.049774370170733
0.048646874673589
0.047394321932972
0.04597332057737
0.044373688957609
0.059337740170955
0.059333790385674
0.05932528232378
0.059311379452678
0.05929128804519
0.059264102424
0.059228590448407
0.059183212105628
0.059126121669308
0.059055174378564
0.058967863182369
0.058861348553822
0.058732355290538
0.05857727355668
0.058391938205563
0.058171880392425
0.057911859636918
0.05760648974999
0.057249192697719
0.05683372053259
0.056351731936356
0.055796452350403
0.055156972891138
0.054426934690171
0.053591232948023
0.052645931069392
0.051567944534398
0.050356689227893
0.04896461206807
0.047373531952716
0.061001843947001
0.061001956623204
0.06100164548228
0.061000199279547
0.06099688248496
0.060990808631882
0.060980736225877
0.060965103335012
0.060942050686045
0.060909424705948
0.060864704765883
0.060805009963696
0.060727002660465
0.060626968935213
0.060500615802871
0.060343281712823
0.060149500512718
0.059913563837661
0.059628526899166
0.059287657537987
0.058882031208096
0.058404209971345
0.05784229396323
0.057189130145443
0.056427674122542
0.05555340189901
0.054539473181238
0.05338684601018
0.052040175844631
0.050479928065744
0.062573020279293
0.062577228432381
0.062585275851871
0.062596586930595
0.062610501743999
0.062626156286968
0.062642309584074
0.062657408895815
0.062669621539867
0.062676803368124
0.062676434040939
0.062665618442565
0.062641016110278
0.062598861132456
0.062534813717755
0.062444068630197
0.062321045396839
0.062159729772939
0.061952969130152
0.061693488373294
0.061372049972699
0.060980373002416
0.060506065006207
0.059940884164964
0.059266515547695
0.058477441887026
0.057541776566654
0.056462530063312
0.055169858241535
0.053664208816178
0.064050912905262
0.064058993262624
0.06407516768236
0.064099094172018
0.064130242853114
0.064167754153152
0.064210383029969
0.064256616901827
0.064304700660538
0.064352535574294
0.064397630171312
0.064437096756179
0.064467619803581
0.064485387650031
0.064486043913324
0.064464639958442
0.064415585002997
0.064332540000212
0.064208378564691
0.064035093110687
0.063803626436153
0.063504139759374
0.063125056762787
0.062655062099971
0.062078341680175
0.061383562672712
0.060543096280976
0.059545685965437
0.05831685971636
0.056833133761928
0.065437426540663
0.065448956313896
0.065472580570869
0.065508572461864
0.065556404877966
0.065615066879737
0.065683450087823
0.065760187982221
0.065843653163557
0.065931804358153
0.066022224490167
0.06611213009454
0.066198357649821
0.066277176947081
0.066344279769505
0.066394553770831
0.066422395240049
0.0664211212016
0.066383751063204
0.066301512381321
0.066165965874896
0.065965249115842
0.065689880003783
0.065323137433592
0.064856287507408
0.064264074219169
0.063542368810157
0.062641885149131
0.061532847558801
0.060002391498965
0.013583788291642
0.013009293393299
0.012423843911602
0.011828503632651
0.011224284980465
0.010612025158777
0.0099924093380301
0.0093660740181313
0.0087336823532317
0.0080959446271061
0.0074536090768085
0.0068074465461647
0.0061582390982075
0.005506773598109
0.0048538398991913
0.0042002310551389
0.0035467430337164
0.0028941735905239
0.0022433209086712
0.0015949814266864
0.00094994954296118
0.00030901954986052
-0.00032700770066612
-0.00095731480859539
-0.0015810851304359
-0.0021977246133659
-0.0028066891169925
-0.0034072678900542
-0.0039986999071086
-0.0045802693678215
-0.0051513247499952
-0.00571126168937
-0.0062595098525079
-0.0067955254893722
-0.0073187931263668
-0.0078288219155815
-0.0083251553932675
-0.0088073615404622
-0.0092750513219469
-0.0097278521658432
-0.010165449433566
-0.010587524946876
-0.010993851599448
-0.011384150108208
-0.011758308531604
-0.012116053112971
-0.012457456384504
-0.012782198897959
-0.013090726016813
-0.013382732299687
0.013787476072165
0.013204913949402
0.012609993646503
0.012004830500446
0.011390965053327
0.010769218605599
0.010139996905102
0.0095036875494142
0.0088608321486744
0.0082121119985944
0.0075582832703211
0.0069001281386078
0.0062384341923974
0.0055739926136229
0.0049076025062067
0.0042400748403337
0.0035722341636894
0.0029049172171842
0.0022389689459325
0.001575237705207
0.00091456894363082
0.00025779630437705
-0.00039427507423404
-0.0010408935790417
-0.0016813544630578
-0.002314710525603
-0.0029399793003522
-0.0035564049414971
-0.0041633262308962
-0.0047600808261597
-0.0053459973010447
-0.0059204145433978
-0.0064827003617637
-0.0070322529513509
-0.0075685106521329
-0.0080909415841153
-0.0085990609003305
-0.0090924055869321
-0.0095705744980199
-0.010033169411804
-0.010479885606019
-0.010910374694822
-0.011324452030926
-0.011721781882496
-0.012102349134855
-0.012465739030174
-0.012812200139408
-0.013140997597373
-0.013452715042116
-0.013745460955193
0.014170069977862
0.013565527583848
0.012945392948713
0.012314226079154
0.011674913381192
0.011028418538276
0.010374697869311
0.0097137332218921
0.0090459126304664
0.0083719408669456
0.0076926550398969
0.0070089069436018
0.0063215256250005
0.0056313250949852
0.0049391228039624
0.0042457523924086
0.0035520679554429
0.0028589405643053
0.0021672507012643
0.001477880579
0.00079170966757306
0.00010961352901136
-0.00056753244180755
-0.0012388416784969
-0.0019034069709817
-0.0025603863143092
-0.0032089868175588
-0.0038484187968777
-0.0044779180670511
-0.0050967479936191
-0.0057041990761242
-0.0062995864363286
-0.0068822613127114
-0.0074516063662999
-0.0080070530122862
-0.0085480602520842
-0.009074149169637
-0.0095848512538624
-0.010079787462462
-0.010558549408723
-0.011020880346098
-0.011466400013554
-0.011895018899263
-0.012306307457345
-0.01270043867686
-0.013076741719852
-0.013435817130342
-0.013776184501666
-0.014098825145922
-0.014399017152167
0.014710825792703
0.014071422214807
0.01341190883111
0.012740793248541
0.01206298284521
0.01137956058936
0.010689735736215
0.0099928567165883
0.0092890827873601
0.0085791549548937
0.007864020359336
0.0071446114174233
0.0064217883773623
0.0056963665865027
0.0049691579241304
0.0042409967332184
0.0035127481950705
0.0027853029661352
0.0020595657753514
0.0013364458607601
0.00061685261615572
-9.8305670971843e-05
-0.00080812476387958
-0.0015117114265113
-0.0022081953371695
-0.0028967205477808
-0.0035764445281627
-0.0042465491872574
-0.0049062438463205
-0.005554765409658
-0.0061913861349398
-0.0068154088506702
-0.0074261803728736
-0.0080230767199237
-0.008605530937691
-0.0091729950900907
-0.0097250009876813
-0.010261069480601
-0.010780849167157
-0.011283907084294
-0.01177004559963
-0.012238821743126
-0.0126902702986
-0.013123803675764
-0.013539854117188
-0.013937345587383
-0.014317368709904
-0.014677265766712
-0.015018481302659
-0.015331734030672
0.01539805083919
0.014712663600861
0.014001251781467
0.013277826853894
0.012549970999051
0.011818812104109
0.011082479748766
0.010339455261491
0.0095896068649716
0.008833740666559
0.0080729538766994
0.0073082780489594
0.0065406018445022
0.0057707291184011
0.0049994531952434
0.0042275998981019
0.0034560393168531
0.0026856765701067
0.0019174342276268
0.00115223829187
0.0003910125680846
-0.00036532259998658
-0.0011158525667028
-0.001859671670603
-0.0025958867982111
-0.0033236194153716
-0.0040420104075187
-0.0047502244443516
-0.0054474572396378
-0.0061329336680222
-0.0068059184643269
-0.0074657069313333
-0.0081116450203956
-0.0087431039317701
-0.0093595235122693
-0.0099603501655712
-0.010545134160418
-0.011113384610854
-0.011664790159874
-0.012198885824625
-0.012715555320989
-0.01321427056707
-0.013695233295641
-0.014157639946329
-0.014602266516197
-0.015027485267251
-0.015435040525116
-0.01582069383372
-0.016186558009944
-0.016517328506681
0.016224796178256
0.015483240779929
0.014708111256235
0.013920664862665
0.013131858789345
0.012342764376073
0.011550070717296
0.010751157803531
0.0099455586292743
0.0091341928178002
0.0083183608711482
0.0074992180967565
0.0066776815757017
0.0058545344360545
0.0050305429029548
0.0042065191040475
0.0033833355324536
0.0025619095655167
0.0017431781851428
0.00092807976438046
0.00011754829869184
-0.0006874857694384
-0.0014860961637204
-0.0022773633335523
-0.0030603798865379
-0.0038342580814655
-0.0045981325106451
-0.0053511614604282
-0.0060925370203595
-0.0068214811623444
-0.0075372603924085
-0.0082391704279951
-0.0089265660355235
-0.009598821395315
-0.010255395084951
-0.01089573611168
-0.011519429270427
-0.012125977610958
-0.012715131373841
-0.013286392415301
-0.013839758474816
-0.01437459949957
-0.014891339827098
-0.015388908213481
-0.015868529509027
-0.016327886918376
-0.016769575757505
-0.017187377480906
-0.017584303927029
-0.017937467000647
0.017187001286629
0.016379661380292
0.015529353003559
0.0146665678245
0.013806379605118
0.012949644755124
0.012091198870358
0.011227073098293
0.010356434442845
0.0094803811156289
0.0086004776248844
0.0077180282488593
0.0068339770154853
0.0059490754446537
0.0050640542090027
0.0041797085838162
0.0032969130371245
0.0024165972625911
0.0015397118358433
0.00066720534977576
-0.00019998088817897
-0.0010609097029542
-0.0019146479426258
-0.0027602694583942
-0.003596862162218
-0.0044235350533439
-0.0052394214512585
-0.0060436800515892
-0.0068355071772688
-0.0076141291785196
-0.0083788231846376
-0.0091288935768247
-0.0098637146701784
-0.010582672599258
-0.011285258775604
-0.011970933039856
-0.012639332647921
-0.013289960254374
-0.013922653089725
-0.014536878373256
-0.015132787451141
-0.015709630758671
-0.016268123381689
-0.016806871136994
-0.017327672198063
-0.017827372529941
-0.018309644101154
-0.0187658543142
-0.01920017128489
-0.01958045631423
0.018283260734874
0.017400931202348
0.01646414415376
0.015514918146307
0.014573234017001
0.013639498964587
0.012706214612316
0.011767801203355
0.010823046563533
0.0098733122740462
0.0089204971835476
0.0079660796222125
0.0070110257755859
0.006056044465192
0.0051018248601343
0.0041491453884546
0.0031988857148716
0.002251990759184
0.0013094256807355
0.0003721487904235
-0.00055889286988585
-0.0014827577091754
-0.0023985085437857
-0.0033052156802456
-0.0042019652383786
-0.0050878667230304
-0.00596205669409
-0.0068236985778403
-0.0076719989471426
-0.0085061952460714
-0.0093255839401277
-0.01012948618256
-0.010917307947447
-0.011688456451592
-0.012442471516448
-0.013178833165478
-0.013897253316692
-0.014597241115402
-0.015278753225556
-0.015941222283741
-0.016585004051448
-0.017209211989554
-0.017814936476974
-0.018400402179907
-0.018968130064161
-0.019513968742225
-0.020042933056211
-0.020543516822808
-0.021021377149306
-0.02143342020071
0.019514250765674
0.018547996088918
0.017513413190188
0.016466701010113
0.015433586128491
0.014413697797583
0.013396647779385
0.012374971244407
0.011347087798869
0.010314731467704
0.0092802144474451
0.0082452130725045
0.0072107086790493
0.0061773554445036
0.0051457973253512
0.004116800481609
0.0030912567743808
0.0020701322359856
0.0010544102640445
4.5060415621749e-05
-0.00095696391415975
-0.0019507161428449
-0.0029352546133997
-0.0039096458777686
-0.0048729749064034
-0.0058243541668588
-0.0067629270147278
-0.007687865530616
-0.0085983919119228
-0.0094937600120017
-0.010373294509091
-0.011236341429024
-0.0120823511085
-0.012910761428647
-0.013721179483914
-0.014513115259199
-0.015286382387376
-0.016040504713171
-0.016775599192233
-0.017491064639179
-0.018187524996804
-0.018863938600067
-0.019521875445683
-0.020159116334866
-0.020779084811633
-0.021376463161471
-0.021957925942798
-0.022508613842749
-0.023036082716764
-0.023484513900632
0.020882153629224
0.019823210227312
0.018679375819501
0.017524095409876
0.016389719437697
0.015274650314552
0.014164969863746
0.013051050629005
0.011930988621297
0.010807026371787
0.0096819770914453
0.008557735228113
0.0074352846180046
0.0063152132801367
0.0051981206719061
0.0040847698502962
0.0029760763874039
0.0018730365554079
0.00077665779791036
-0.00031207485877095
-0.0013921981189828
-0.0024627572404264
-0.0035228033351949
-0.0045713966557565
-0.0056076188890678
-0.0066305849237866
-0.0076394464152993
-0.0086333867875189
-0.0096116486227753
-0.010573506090548
-0.011518319317167
-0.012445465492495
-0.013354453325685
-0.014244759937891
-0.015116080428632
-0.015967964286693
-0.016800359502625
-0.017612811714655
-0.018405648375515
-0.019178233544101
-0.019931538366336
-0.020664344695464
-0.021378830300051
-0.022072264532107
-0.022749190169946
-0.023402942451446
-0.02404222960958
-0.024648339109709
-0.025231226621515
-0.025720564994777
0.022390170750745
0.021229891829216
0.019965148636016
0.018690151322861
0.017444767223249
0.01622557528532
0.015014401400213
0.01379918611521
0.012577790673428
0.01135313282148
0.010128618877931
0.0089063743578475
0.0076873685207341
0.0064721119578581
0.0052611649204572
0.0040553032397351
0.0028554823310694
0.0016627410247244
0.00047811988769222
-0.00069737323144193
-0.0018627578276833
-0.0030170636750779
-0.0041593285378385
-0.0052886020724227
-0.0064039601274708
-0.0075045176055331
-0.0085894302182507
-0.0096578896997591
-0.010709161428404
-0.011742542430741
-0.012757435815061
-0.013753254344256
-0.014729578172144
-0.015685930153859
-0.016622117424464
-0.017537735848342
-0.018432906207185
-0.019307200528094
-0.020161218438502
-0.020994283764784
-0.021807812740131
-0.02260038219841
-0.023374935622829
-0.02412815214011
-0.024865955523778
-0.025580140578314
-0.026281892550009
-0.026948137322318
-0.027591842768994
-0.028126426914239
0.024042030481272
0.022771880543561
0.021374370316435
0.019968474754343
0.018602451520613
0.01727027940877
0.015948718313487
0.014623036519994
0.013291007268036
0.011956421006082
0.010623370363594
0.0092942140059004
0.0079698821472153
0.0066508000128565
0.0053375023572407
0.0040308005163248
0.002731711330491
0.0014413319655997
0.00016074726742006
-0.0011090016302178
-0.0023669056732609
-0.0036119666647288
-0.0048431964441319
-0.0060596224249182
-0.0072603059938504
-0.0084443633484821
-0.0096109585919725
-0.010759282645247
-0.011888610925161
-0.012998258389518
-0.01408768034944
-0.015156329240971
-0.016203870116696
-0.017229873365776
-0.018234283544782
-0.019216746449455
-0.020177601680183
-0.021116446248466
-0.022034227687959
-0.022930216233594
-0.023806395178909
-0.024661095272474
-0.025498220154906
-0.026313761005367
-0.027115339597172
-0.027892991619597
-0.028660911837867
-0.029391144628638
-0.030100432178424
-0.030684286143987
0.025841520649494
0.024453100147215
0.022910821934119
0.021362910698546
0.019866810956247
0.018412913890958
0.016972034479173
0.015526583645058
0.014074464615363
0.012620568088795
0.011169758224489
0.0097246129270867
0.0082859946932102
0.0068542408925178
0.0054298840181105
0.0040138034259169
0.0026071043589314
0.001210961496618
-0.00017348109433013
-0.001545134856856
-0.0029029469176636
-0.0042458747294323
-0.0055728854744154
-0.0068829709716558
-0.0081751610870408
-0.0094485551093202
-0.010702326515695
-0.011935669777374
-0.013147861837158
-0.014338218471117
-0.015506245651316
-0.01665143499361
-0.017773548643676
-0.018872202544724
-0.019947505772049
-0.020999150700173
-0.022027747736372
-0.023032909466771
-0.024016023093528
-0.02497627988806
-0.025916382185589
-0.026834357945196
-0.027735312892994
-0.028614429985097
-0.029481413130947
-0.03032428776655
-0.031160889468285
-0.031957843053037
-0.032736609054803
-0.033373299179089
0.027792002263984
0.026277116092835
0.024578045586998
0.022877221938823
0.021241932003897
0.019657746438522
0.018088603185825
0.016513958588479
0.014932152526724
0.013349431166439
0.011771500184496
0.010201122127557
0.0086390571457468
0.0070855627067078
0.0055412069475145
0.0040069786813594
0.0024841041783835
0.00097385893538142
-0.00052253599241115
-0.0020039250731127
-0.0034691938269568
-0.0049172342101282
-0.0063469444044584
-0.0077572359680831
-0.0091470928196359
-0.01051563759244
-0.011862010656821
-0.013185349496159
-0.01448494028285
-0.015760116653569
-0.017010426941421
-0.018235382832037
-0.019434846954526
-0.020608478290219
-0.021756572793025
-0.022878862932799
-0.023976281691983
-0.025048439879441
-0.026097266658875
-0.027121834375094
-0.028125746038461
-0.029106648643828
-0.030071148360836
-0.031013477495262
-0.031945895823837
-0.032854140139962
-0.033760446235769
-0.034625455427552
-0.035476492635457
-0.036168964454547
0.02989594046737
0.028246702011302
0.026378999385289
0.024514806004641
0.022731671588792
0.021008879436167
0.019302560859891
0.017589233750005
0.01586806530006
0.014146926443472
0.012432407639594
0.010727400515065
0.0090325321206148
0.0073480042346444
0.0056744737673252
0.0040130912282095
0.0023652412641203
0.00073232548450347
-0.00088433061300025
-0.0024834807487805
-0.0040639166643937
-0.0056244458579868
-0.0071639086145409
-0.0086810812884991
-0.010174792748855
-0.011644243343607
-0.013088529166006
-0.014506682036795
-0.015897967057226
-0.017261735086979
-0.01859757045661
-0.019904994018787
-0.021183956109187
-0.022434158847957
-0.023656089057957
-0.024849522269059
-0.026015741720204
-0.027154353227638
-0.02826791113133
-0.029355334739417
-0.030421310155058
-0.031463012022942
-0.032488882403543
-0.033492033276373
-0.034487842493365
-0.035459468534404
-0.036434472997106
-0.037366972351745
-0.038291605436658
-0.039041991614858
0.032154510073888
0.030363355017396
0.028315572482546
0.026278359779233
0.024339483005418
0.022470130446351
0.020617769614174
0.018756219859167
0.016885996573109
0.015016853485844
0.013156246101697
0.011307107398972
0.0094699099745295
0.0076448510941917
0.0058327507438478
0.0040349808002194
0.0022531237767888
0.00048873826305791
-0.0012567189980133
-0.0029818703614143
-0.0046853762454703
-0.0063659157991424
-0.0080221896290483
-0.0096530265042399
-0.011256963378103
-0.01283314898869
-0.01438045309716
-0.015897971643637
-0.017384994176154
-0.018840814825491
-0.020264990106529
-0.021657046747969
-0.02301699464612
-0.02434459317076
-0.025640479534567
-0.026904517343138
-0.028138301432246
-0.029341502421028
-0.030517286248433
-0.031664484966487
-0.032788946594799
-0.033887372509422
-0.034970307751011
-0.036029614133453
-0.037084343220613
-0.038114794360386
-0.039154878118421
-0.040151752642413
-0.041149154675982
-0.041958280537406
0.034567297040978
0.032627240377146
0.03038846861927
0.028169470520792
0.026067859492275
0.024044616945744
0.022037616190659
0.02001837711163
0.017989464974815
0.015962802235609
0.01394662683889
0.011943790217534
0.0099546066702996
0.0079793516241227
0.00601910095356
0.0040755143298893
0.0021504129338413
0.00024554475663922
-0.0016374632574592
-0.0034970600839173
-0.0053317259172051
-0.0071399495662767
-0.0089202572952636
-0.010671244806438
-0.012391919027474
-0.014080536001043
-0.015736048380237