/*--------------------------------*- C++ -*----------------------------------*\
| =========                 |                                                 |
| \\      /  F ield         | OpenFOAM: The Open Source CFD Toolbox           |
|  \\    /   O peration     | Version:  2112                                  |
|   \\  /    A nd           | Website:  www.openfoam.com                      |
|    \\/     M anipulation  |                                                 |
\*---------------------------------------------------------------------------*/
FoamFile
{
    version     2.0;
    format      ascii;
    arch        "LSB;label=32;scalar=64";
    class       volScalarField;
    location    "3.6";
    object      p;
}
// * * * * * * * * * * * * * * * * * * * * * * * * * * * * * * * * * * * * * //

dimensions      [0 2 -2 0 0 0 0];

internalField   nonuniform List<scalar> 
22000
(
0.052389147726892
0.052359577096309
0.05229796861509
0.052202891417766
0.052073816004708
0.051910862276664
0.051714375604717
0.051484701646568
0.051222140220651
0.050926961577889
0.05059943186497
0.050239831813763
0.049848448809382
0.049425577352624
0.048971539368331
0.048486743536597
0.047971710329628
0.047427104175311
0.046853609421971
0.046251797592147
0.045622021178342
0.044964860241362
0.044281255122489
0.043572480687577
0.042839266449748
0.042082296691794
0.041302045836921
0.04050010783374
0.039677286531728
0.038835641544042
0.052946702332869
0.052915511340176
0.052851867519351
0.052754532851668
0.052622938956532
0.052457103482718
0.052257289413983
0.052023788507299
0.051756863129046
0.051456754400147
0.05112370477212
0.050757983417595
0.050359872596337
0.049929654687695
0.049467620934376
0.048974141582838
0.048449713470199
0.047895046344778
0.047310874835436
0.046697738099499
0.046055826624345
0.045385663997476
0.044688224119655
0.043964937675964
0.043216440397669
0.042443489286553
0.041646328712502
0.040826873715149
0.039985307219405
0.039124110821572
0.05396946148176
0.053937209063993
0.05387154200508
0.053771295092305
0.05363592833954
0.053465442186425
0.053260063249084
0.053020045619622
0.052745619888333
0.05243700066064
0.052094403152817
0.051718066243472
0.051308226685284
0.050865105441187
0.050388922677165
0.049879995892957
0.049338798960728
0.048766085657796
0.048162598166708
0.047528800874377
0.046864686707567
0.046170768632727
0.045448045216939
0.044698146549179
0.043921482834399
0.043118975286344
0.042290427149082
0.041438432435555
0.040562092952262
0.039665030320902
0.055391216371635
0.055357839818168
0.055289888221189
0.05518616853141
0.055046125110557
0.054869743378498
0.054657225156191
0.054408789373354
0.054124624877346
0.053804901326995
0.053449784457788
0.053059458349562
0.052634090141827
0.052173826469456
0.051678811031459
0.05114929787146
0.050585695468134
0.049988740577441
0.049359122994258
0.048697234648081
0.048002874985897
0.047276554526832
0.046519206303674
0.045732665570917
0.044917036354312
0.044073540414719
0.043201333232504
0.042303924919664
0.041378766088766
0.040431095181076
0.05715385942007
0.057119244908024
0.057048770109967
0.056941201562729
0.056795951171346
0.056612974446589
0.056392436565971
0.056134509727693
0.055839324016136
0.055506979631237
0.05513756420157
0.05473117881682
0.054287894071239
0.053807758203126
0.05329080859735
0.052737197618084
0.052147221628317
0.051521568754155
0.05086085096906
0.050165386840371
0.049434751911372
0.04866943654499
0.047870212466377
0.047039120305285
0.046175845482587
0.045282026997492
0.044355938553576
0.043402263092405
0.042416247477841
0.041405305378587
0.059206033185851
0.059170173361269
0.059097157659326
0.058985710605809
0.058835203160996
0.058645546556076
0.058416850400344
0.058149218730185
0.057842700324453
0.057497301908807
0.057113008142815
0.056689812586149
0.056227660787604
0.055726469482949
0.055186131735173
0.054606657164365
0.053988175170672
0.053331265508131
0.052636396708456
0.05190377920889
0.051132722430391
0.050323680979404
0.049477174649871
0.048595448385263
0.047677650997733
0.046725962097147
0.045737541592208
0.044718524972243
0.043661379132533
0.042576236395675
0.061501319351831
0.061464324375335
0.061388986709345
0.061273989392176
0.061118655797526
0.060922839516907
0.06068657674137
0.060409883176573
0.060092702607735
0.059734919193822
0.05933637873679
0.058896926485007
0.058416339137388
0.057894361638382
0.057330703361984
0.056725197383018
0.056077762630987
0.055388822939816
0.054658633140805
0.053887256471417
0.05307368520561
0.052218319100733
0.051321313884805
0.050385080919583
0.049408088194014
0.048393123145328
0.047335993611803
0.046244505333969
0.045107743556347
0.043939040624995
0.063996862943644
0.063958955259139
0.063881742491719
0.063763869975963
0.063604608114858
0.063403738813164
0.063161204643342
0.062876908227135
0.06255066016832
0.062182192102838
0.06177117978625
0.061317289194061
0.060820095096415
0.060279134105488
0.059693884525098
0.059063948203185
0.058388961203219
0.057669117126771
0.056904372633117
0.056094593981958
0.055238388901621
0.054336058237835
0.053387280723905
0.052394584107427
0.051355647499045
0.050273867234781
0.049143507533149
0.047974207955928
0.046750994796226
0.045491104717821
0.066652550177751
0.066614056057949
0.066535625720209
0.066415873004024
0.066254011031255
0.066049736881572
0.065802881117167
0.065513212185255
0.065180383476718
0.064803945669521
0.06438336925713
0.06391809908777
0.063407460526281
0.062850732803146
0.062247111718952
0.061595918288298
0.060896447403248
0.060148596827281
0.059351945599789
0.058506101151126
0.057609223205585
0.05666143420981
0.055661854837096
0.054612967091142
0.053511682292512
0.052361779006395
0.05115588075836
0.049905777728876
0.048590760373396
0.047234013328541
0.069430596605414
0.069391934089635
0.069313131220234
0.069192779468228
0.069030032145752
0.068824489005719
0.06857585066271
0.068283729560238
0.067947595588329
0.067566789323123
0.067140543776201
0.066668048330305
0.06614834242541
0.065580410398598
0.064963116890537
0.064295446883102
0.063576282582233
0.062805149848093
0.061981157710098
0.061103579664995
0.060170054430825
0.059180417305462
0.058133169612738
0.057030515409907
0.055868708308935
0.05465158034851
0.053370109415141
0.052038604421635
0.050628489251802
0.049170616410211
0.072295431344915
0.072257096963132
0.072178923846209
0.07205949124139
0.071897891068029
0.071693614876596
0.071446218146591
0.071155140027001
0.070819647806827
0.070438851230976
0.070011720273801
0.069537157264516
0.06901387721347
0.068440525816493
0.067815583125403
0.067137643866498
0.066405111339105
0.065617067079261
0.064772056748572
0.063868943582271
0.062904760746398
0.061878962478644
0.060789316924134
0.059637578247804
0.058419316710079
0.057138028468851
0.055783662880571
0.05437151944504
0.05286745820154
0.051308534361692
0.075213774704584
0.0751763170211
0.075099896533158
0.074983081962173
0.074824902069243
0.074624734619092
0.074381980897796
0.074095895377932
0.073765528795091
0.073389742449555
0.072967220092127
0.072496548790366
0.071976086771876
0.071404106748902
0.07077866425848
0.070097920044613
0.069359739648826
0.068562689483767
0.067704662830964
0.066784030750601
0.065797128375189
0.064742924832836
0.063618316434952
0.062424460844672
0.061156091840483
0.059816173339127
0.058393734331709
0.05690400529569
0.055310947878924
0.053653285753227
0.078154835170774
0.078118836106362
0.078045361516628
0.077932974758678
0.077780639706999
0.077587618745063
0.077353156136526
0.077076315703301
0.076755922828238
0.076390579894401
0.075978671459922
0.075518453357903
0.075007907126238
0.074444908383563
0.073827054010834
0.073152030132274
0.072417111096495
0.07162028715347
0.070758720534499
0.069830212506278
0.068830308332347
0.067757387908875
0.066607333566556
0.065380574686993
0.064070824529422
0.062680416080382
0.061197241724697
0.059636284373619
0.057959428916303
0.05620683415075
0.081090520430371
0.081056575022422
0.080987259102353
0.080881146692688
0.080737139714746
0.080554384533879
0.080331970211759
0.080068772802971
0.079763394341575
0.079414178283246
0.079019206705168
0.078576397069634
0.078083342311349
0.077537504365205
0.076935996878986
0.076276004069207
0.075554170813873
0.074767864353013
0.073913448009975
0.072988085294719
0.071986449353873
0.07090623812314
0.069742184236358
0.068493863812644
0.06715376811062
0.065723484727964
0.064189504302457
0.062566323572922
0.060813556713682
0.058972177201433
0.083995614840816
0.083964306849861
0.083900339107914
0.08380231787422
0.083669093144274
0.083499699296286
0.083293076045511
0.083047920209764
0.08276262005815
0.082435268909153
0.082063653796178
0.081645357794735
0.081177586424228
0.080657386187513
0.080081379394453
0.079446236521298
0.078747950341932
0.077983235397921
0.077147604395748
0.076237530069512
0.075246737305174
0.074172159627442
0.073007249366049
0.071750617990632
0.070393325588427
0.068936102476654
0.067363737083188
0.065690019398893
0.06387199807711
0.061950673102375
0.086847934119238
0.086819817506181
0.086762328575328
0.08667412950463
0.086554032977491
0.086400970772981
0.086213744358878
0.08599088576574
0.085730586260253
0.085430706076504
0.085088754785051
0.084701998028818
0.084267271820329
0.083781221395967
0.083239986702424
0.08263972874559
0.081975782979433
0.081244199975681
0.080439609442398
0.079557760171424
0.078591364828626
0.077536528198739
0.076385300951121
0.075135242983705
0.073775773920032
0.072306671234503
0.070710672081651
0.069000696941433
0.067130652409184
0.065141561420566
0.089628417931609
0.089604000825582
0.089554030610847
0.089477250172768
0.08937245216976
0.089238479028008
0.089074009616452
0.088877431602442
0.088646764059181
0.088379661718585
0.088073386022086
0.087724914076028
0.087330741470984
0.086887138200214
0.086389785569314
0.085834354808337
0.085215543113279
0.084528749273516
0.083767716693811
0.08292746013503
0.081999637600004
0.08097948832483
0.07985755098273
0.078630283300772
0.077285254371274
0.075821231672188
0.074218534140275
0.072488985359605
0.070582661273368
0.068538477053026
0.092321145271659
0.092300876688966
0.092259346652783
0.092195404521832
0.09210784292371
0.09199543211558
0.091856748357181
0.091690060110431
0.091493244678807
0.091263786054583
0.090998735912
0.090694822823445
0.090348243977577
0.089954934344493
0.089510156965804
0.089009130993361
0.088445956531575
0.087815411399767
0.087110379743585
0.086325152217451
0.085450321268983
0.084480251515938
0.083403886670525
0.08221656854585
0.080903814090952
0.079463321795255
0.077872783148151
0.076142571306487
0.074218785271038
0.072135833794609
0.094913267582853
0.094897530962041
0.094865227566348
0.094815336568622
0.094746671602109
0.094657953112432
0.094547681170002
0.094414034835734
0.094254783662198
0.094067279917103
0.093848410917335
0.093594705342218
0.093302116314442
0.092966297085942
0.092582151021501
0.092144497240486
0.091646903552391
0.09108357353887
0.090446590822279
0.089729547315069
0.088921996874382
0.088017442596658
0.087003193236896
0.085873508234469
0.084611663685482
0.083214230981262
0.081655939023927
0.079945395284168
0.078024437744916
0.075921780779575
0.09739485897938
0.097383972122904
0.097361545543694
0.097326705438164
0.097278302287785
0.097215029892867
0.097135344369833
0.097037370576863
0.096918808346952
0.096776921563736
0.096608487379614
0.09640989194914
0.096176909762646
0.095904972340025
0.095588697228215
0.095222563991811
0.094799697926607
0.094313784215931
0.093756206991754
0.093119893037341
0.092393442538151
0.091569514230638
0.090633817306489
0.089579580446892
0.08838774405101
0.087053782520032
0.085549003117574
0.083879823060457
0.081982844110101
0.079880486934177
0.099758703913917
0.099752915610563
0.099740877642871
0.099721876029463
0.099694814705678
0.099658383039237
0.09961102113794
0.099550829374877
0.099475474462661
0.099382176871583
0.099267663482383
0.099128241737382
0.09895958721603
0.098756977235873
0.098514838470974
0.098227377503445
0.097887404676161
0.097488136716366
0.09702041440061
0.096476495981528
0.095844204979758
0.095115311607128
0.094274107916292
0.093312790044213
0.092210023477747
0.090960466658965
0.089531778904021
0.087928442671752
0.086079192072039
0.083997917146498
0.10200005329276
0.10199952937259
0.1019982307541
0.10199561639006
0.10199067383996
0.10198211939407
0.1019684077253
0.10194763496548
0.10191746246024
0.10187510931277
0.10181730809227
0.10174033870307
0.10163985236747
0.10151103495245
0.10134823426793
0.1011454455
0.1008953415556
0.1005907080321
0.1002221126567
0.099781066810688
0.09925500211804
0.098634517621061
0.097902985483369
0.097051120804743
0.096055685696772
0.094910384524743
0.093579323417893
0.09206769922099
0.090294353079385
0.088264289443825
0.10411642080405
0.10412114223316
0.10413066323489
0.10414466240687
0.10416226365434
0.10418220170134
0.10420294039854
0.10422259225411
0.10423887720359
0.10424908706287
0.10425003091612
0.10423800924482
0.10420870089653
0.10415723266628
0.1040779669494
0.10396471193895
0.10381017335178
0.10360667722606
0.10334483510965
0.10301521005595
0.1026055926587
0.10210480209791
0.10149663241384
0.10076879612912
0.099897963640775
0.098873878246445
0.097658470854577
0.096254781442833
0.094577141155923
0.092633431520125
0.1061076374947
0.10611726982799
0.10613713982229
0.10616732218215
0.10620727246527
0.1062558043743
0.10631120672106
0.10637143372636
0.10643428677545
0.10649725351721
0.10655736156881
0.10661107504557
0.10665422750097
0.10668198536493
0.1066888287006
0.10666843026429
0.10661366247632
0.10651619831389
0.10636698416213
0.10615526064402
0.10586981570909
0.1054966425165
0.10502208957259
0.1044283616305
0.10369750507276
0.10280756443165
0.10172833736403
0.10043507352699
0.098853902309327
0.096959208076164
0.10797638428408
0.10799066643877
0.1080200180737
0.10806539920442
0.10812633368914
0.10820225942131
0.10829150182343
0.10839168899525
0.10850038377016
0.10861505055576
0.10873294314888
0.10885091493152
0.10896528014278
0.10907159023108
0.1091647021526
0.10923835862257
0.10928558934313
0.10929778144224
0.1092664310565
0.10917966196863
0.10902732739225
0.1087921492378
0.10846325520137
0.10801539249512
0.10743945729823
0.10669755671106
0.10578588410564
0.10463190462418
0.10320304110185
0.10123930801501
0.038028122980064
0.037258241894691
0.036474473224253
0.035678431310435
0.034871527684613
0.034054760140078
0.033228886626478
0.032394657427765
0.031552920149582
0.030704607468798
0.029850694678353
0.028992178874586
0.028130080541081
0.027265450442376
0.026399367866032
0.025532930905651
0.024667245085476
0.023803415417977
0.022942538234586
0.022085693179857
0.021233947296035
0.020388354456117
0.019549973108843
0.018719890582218
0.017899210697134
0.017088934528738
0.016289552931345
0.015501688784287
0.014726114887411
0.01396373822743
0.01321547154527
0.012482111675562
0.011764339603508
0.011062762160612
0.010377920630137
0.0097102744726454
0.0090601742996874
0.0084278610605531
0.0078134804067194
0.007216961661548
0.0066382475435725
0.0060774898176107
0.0055349138938426
0.0050107104284635
0.0045051494421368
0.0040183530289837
0.0035505646340879
0.0031016813753944
0.0026723302653888
0.0022619360274917
0.03830127496246
0.037519849148947
0.036722542866309
0.035912716647561
0.035092267626892
0.034261935509075
0.033422124179075
0.032573411009234
0.03171663173764
0.030852765223958
0.029982824363463
0.029107819110789
0.028228767960783
0.027346717852623
0.0264627524802
0.025577986858884
0.024693558486728
0.023810618523401
0.022930327053827
0.02205385840069
0.021182391223272
0.020317101497514
0.019459096149189
0.018609337393016
0.017768645263098
0.016937828757614
0.016118234830573
0.015311129328353
0.014517577235886
0.013738318628085
0.012973948675966
0.012225131462327
0.01149257903424
0.010776939600633
0.01007876451462
0.0093985207296534
0.0087366071413559
0.0080933266515288
0.0074689298854334
0.0068638878590482
0.0062785764496097
0.0057131016976402
0.0051675644188693
0.0046419872111559
0.0041364350007033
0.0036507819138566
0.0031851251945684
0.0027390678433602
0.002312493262519
0.0019046436023716
0.038809927795156
0.03799741614217
0.037165075509377
0.036320007343992
0.035465367524928
0.034601597400509
0.033728498681286
0.032846325358174
0.031955880768913
0.031058230785407
0.030154471713636
0.029245658956248
0.028332832145434
0.027417058790668
0.026499455400536
0.025581183240711
0.02466343023409
0.023747394606692
0.02283427406242
0.021925253962101
0.021021506303406
0.020124163432592
0.019234349957079
0.018353234903725
0.017482061393351
0.016622175038461
0.015774691111447
0.014940373344202
0.014119906138943
0.013314196021708
0.012524228107527
0.011750844016604
0.010994748164272
0.010256587557627
0.0095369710629716
0.0088364358290926
0.0081554381077882
0.0074943484526355
0.0068534700528555
0.0062329776272872
0.0056331163649019
0.0050540349179021
0.004495852138735
0.0039585551540799
0.0034421692275203
0.0029465333555523
0.0024716831049835
0.0020175147243213
0.0015848620892707
0.0011755455800939
0.039528235390925
0.038666758539072
0.03778003592558
0.036881030446677
0.035974747083073
0.035061071432228
0.034138833241479
0.033207778978641
0.032268657667458
0.031322654078213
0.030370965883161
0.029414682147103
0.028454831881799
0.027492463562963
0.026528687124478
0.025564670804804
0.024601618146464
0.023640750783272
0.022683303649368
0.021730530770319
0.020783705874148
0.019844119985853
0.018913065383816
0.0179918079293
0.017081572619665
0.016183511999153
0.015298543581721
0.014427673947441
0.013571967282821
0.012732422804368
0.011909928061156
0.011105290992513
0.010319265135326
0.0095525353104229
0.008805711401534
0.008079321886175
0.0073738314537171
0.0066896273125682
0.0060270450773652
0.0053863345503052
0.0047677130037436
0.0041712823904017
0.0035971591737368
0.0030453005091662
0.002515808880897
0.0020085281269691
0.0015237603207055
0.0010615067050501
0.00062341807606082
0.00021249829997612
0.040441544892038
0.039515455449811
0.038557019937072
0.037587266066393
0.036613643672854
0.035635183041813
0.03464933816217
0.033655154898172
0.032653312351412
0.031645158229399
0.03063202706025
0.029615056728294
0.028595270737714
0.02757370437977
0.026551473460962
0.025529774317239
0.024509853357472
0.023492983966928
0.02248046186853
0.021473605705259
0.020473746229644
0.019482206438366
0.018500263777908
0.017529132370647
0.016569952375019
0.015623780303097
0.014691821829583
0.013775266461924
0.012875213704018
0.011992643710915
0.011128467336077
0.010283537378193
0.0094586332995451
0.0086544572757966
0.0078716549791036
0.0071108005612598
0.006372404560844
0.0056568814102073
0.0049645892787633
0.0042957786678664
0.0036506824279257
0.0030293933282575
0.0024320625603221
0.0018586050286087
0.0013091657579822
0.0007834671117691
0.00028196591769763
-0.00019527744860027
-0.00064519487893361
-0.0010615516387632
0.041540105603853
0.04053496195607
0.03948841581588
0.038431980431262
0.037376193140547
0.036318905189035
0.035255772318592
0.034184952759468
0.033107059350631
0.032023663484467
0.030936277430961
0.029846096201863
0.028754127563853
0.027661380188809
0.02656896550941
0.025478099358277
0.024390056630538
0.023306136950536
0.022227656451103
0.021155946167982
0.020092346275174
0.019038180600705
0.017994754207732
0.016963364929632
0.015945314759481
0.014941948862168
0.013954519965446
0.012984126427513
0.012031810392504
0.011098651408721
0.010185681061972
0.009293795337353
0.0084237971244948
0.0075764381697878
0.0067524232671449
0.0059523616087957
0.0051767824441529
0.0044261020611264
0.0037006884356403
0.003000780992529
0.0023266165077903
0.0016782397147503
0.0010558005122203
0.00045911353506187
-0.00011162400538561
-0.00065680929801797
-0.0011756687568946
-0.0016680555320592
-0.0021293577988341
-0.0025508431414189
0.042820433544183
0.041722446853881
0.040571598347428
0.03941267831512
0.038260082391387
0.037110124729739
0.035956187607966
0.034795348658322
0.033628185108221
0.032456580825728
0.031282278173792
0.030106532464417
0.028930311609931
0.027754566848615
0.026580379183613
0.025408966640107
0.024241625648553
0.023079685943114
0.0219245022145
0.020777458643492
0.019639964156461
0.018513436238479
0.017399288216501
0.016298925565493
0.015213736760144
0.014145064599439
0.013094120214563
0.012062076453674
0.011050075042377
0.010059215300238
0.0090905249001613
0.0081449393076849
0.0072233228213317
0.0063264631831763
0.0054550794158134
0.0046097832332481
0.0037911169502828
0.0029994993791548
0.0022353120534082
0.0014987765732507
0.00079014244015685
0.00010941066450376
-0.00054322592020493
-0.0011680263583269
-0.0017646636155016
-0.0023336524698513
-0.0028738149880625
-0.0033848982324295
-0.0038601484793105
-0.0042869003782464
0.044281299569907
0.0430771732018
0.041806159460387
0.040529497626994
0.039266111810805
0.038010259986249
0.036752516858272
0.035488671484794
0.034219288155912
0.032946656413986
0.031672819264796
0.030399123243123
0.029126505637829
0.027855865136309
0.026588259646673
0.025324919680803
0.024067175338997
0.022816399778209
0.021574000445807
0.020341426399396
0.019120160685473
0.01791169518074
0.016717503752148
0.015539028701324
0.014377664756241
0.013234753279624
0.012111648740019
0.011009629589547
0.0099298825376397
0.0088735326839628
0.0078416648731155
0.0068352892401034
0.0058553327840547
0.0049026238951372
0.0039779226319379
0.0030818771182898
0.0022150757521409
0.001377957981496
0.00057093950621334
-0.0002057728665462
-0.00095189105318156
-0.0016674705102005
-0.0023522350938029
-0.003006576975712
-0.0036299624131614
-0.004223166513277
-0.0047843880943701
-0.005313554991316
-0.0058012300146659
-0.0062314196986457
0.045926434585655
0.044602963135581
0.043195276472918
0.041785567247535
0.040397695718827
0.039022861233867
0.037648297398025
0.036268404186858
0.034883769033324
0.033497173010083
0.032111037471388
0.03072683593957
0.029345483406611
0.02796783067308
0.026594922885264
0.025228017975868
0.023868493771281
0.022517774783744
0.021177320489294
0.01984863464727
0.01853325724783
0.017232738190241
0.015948610044689
0.014682384421277
0.013435553732822
0.012209579256051
0.011005874352824
0.0098257982672041
0.0086706202026549
0.0075415341229771
0.0064396896819938
0.0053661571212887
0.0043219192105808
0.0033078491441078
0.0023247539834172
0.0013733126622391
0.00045415074760357
-0.00043228853903193
-0.0012855595495124
-0.0021054863880267
-0.0028917335987705
-0.0036444401837547
-0.0043632216882743
-0.0050486621684512
-0.0056999546766188
-0.0063182648958569
-0.0069009887831418
-0.0074484880568754
-0.007947951879584
-0.0083798286484603
0.04776040308741
0.046304531230158
0.044743117314126
0.04318474540659
0.041658681583925
0.040151778463402
0.038647262413088
0.037138090013804
0.035624971912074
0.034111290304247
0.032599927835283
0.03109251912456
0.029589954710866
0.028093026828988
0.026602763513172
0.02512045332887
0.023647530536936
0.022185482672178
0.020735834093518
0.019300158653499
0.017880074093557
0.016477217164911
0.015093216532678
0.013729687980715
0.012388229834086
0.011070397869378
0.0097776928980354
0.0085115522590992
0.007273323461163
0.0060642790625181
0.0048856429811964
0.0037385493253229
0.0026240444627401
0.0015430587876964
0.0004964619129977
-0.00051502364742193
-0.0014907175188341
-0.0024301600221559
-0.0033328511597097
-0.0041986380921887
-0.0050271078149512
-0.0058184913044257
-0.0065722529143256
-0.007289201919664
-0.0079681808986968
-0.0086108215622924
-0.0092135460737988
-0.0097772853235394
-0.01028533880779
-0.010714551710118
0.049789515390249
0.048187056306684
0.046455466972976
0.044733207697646
0.043055264685029
0.041403344251125
0.03975587592703
0.038104157718352
0.036449166276339
0.034795049567111
0.033145239358453
0.031501564484182
0.029864903534611
0.028236001397487
0.026615883682144
0.025005886577609
0.02340751722275
0.021822342146397
0.020251969011181
0.01869806401368
0.017162349801651
0.015646575940711
0.014152486918748
0.012681812976279
0.011236251869368
0.0098174495754033
0.0084270422894832
0.0070665807772226
0.0057374991741548
0.0044411505204328
0.0031788502560487
0.0019518237487147
0.00076120750025886
-0.00039198931183921
-0.0015068137865322
-0.0025824840049642
-0.003618248598265
-0.0046136256793871
-0.0055680460214152
-0.0064813881680524
-0.0073531385536241
-0.0081836531828662
-0.0089721923250902
-0.0097198696534811
-0.01042505266306
-0.011090017854641
-0.011709934335314
-0.012286679189689
-0.012798928036566
-0.013220253106538
0.05201987764337
0.050257724180497
0.048339636277283
0.046437974863056
0.04459441951719
0.042784603449783
0.040981131590143
0.039173392387163
0.03736284637872
0.035554625834307
0.03375280284067
0.031959421636298
0.030175356550696
0.028401321933888
0.026638370367626
0.024887921630751
0.02315159164082
0.021431055528926
0.019728024246186
0.018044271214369
0.016381634035349
0.014741988519356
0.01312721127141
0.011539162784637
0.0099796878811621
0.0084505799337557
0.0069535798022915
0.005490373805073
0.0040625483987096
0.0026715728014188
0.0013188566855926
5.7253832599519e-06
-0.0012665732690486
-0.0024969328773953
-0.0036843032637687
-0.0048278302688812
-0.0059266765315714
-0.0069803258343852
-0.007988123225056
-0.00894997540362
-0.0098652407999952
-0.010734419814301
-0.011556503852209
-0.012332990264687
-0.013061614810598
-0.013745525614681
-0.014378268327762
-0.014963215138594
-0.015473471023244
-0.015880202770668
0.054458382246829
0.052524452875657
0.050403100588544
0.048306350375081
0.046283545203588
0.0443030267174
0.042330448090047
0.040353039234412
0.038373008885926
0.036396734623192
0.034429029478703
0.032472165860207
0.030527018574519
0.028594290722611
0.02667509074506
0.02477095702913
0.022883652723803
0.021015000344103
0.019166851308622
0.017341118441138
0.015539785161018
0.013764880622148
0.012018440319931
0.010302488191304
0.0086190263818217
0.006969996321403
0.0053573304738754
0.003782888673634
0.0022483995633105
0.00075545523243519
-0.00069440163872353
-0.0020997082204589
-0.0034590786519896
-0.0047712876478209
-0.0060351639889904
-0.0072497583351739
-0.0084141250408255
-0.0095276924253124
-0.010589701964119
-0.011600072844083
-0.012558014969674
-0.013464176831178
-0.014317231207206
-0.015119130627364
-0.015866834747021
-0.016564612305948
-0.017203992899399
-0.017790506545483
-0.018290641687437
-0.01867448436951
0.057110738875832
0.054993803930069
0.052652700790136
0.050345528463055
0.048130218717039
0.045966419963401
0.043811659264071
0.041650812808028
0.039487171758595
0.037328653329763
0.035180907015828
0.033046436260907
0.030926124440038
0.028820698288091
0.026731371360903
0.024659848476415
0.022608080211479
0.02057807050199
0.018571843126569
0.016591486193036
0.014639168185971
0.012717113489811
0.010827559821878
0.008972733310324
0.0071548435080583
0.0053760418879365
0.0036384494718147
0.0019441064833608
0.00029492637002233
-0.0013073223226448
-0.0028609305892434
-0.0043642796673133
-0.0058158213768158
-0.0072141839381973
-0.0085580427740816
-0.0098463290659555
-0.01107796007886
-0.012252288273756
-0.013368427961251
-0.014426290824835
-0.015424920082094
-0.016365100754001
-0.017245152590954
-0.018067532255902
-0.018828291204227
-0.019533070360677
-0.020170967610583
-0.020750450535506
-0.021230238319635
-0.021581210554798
0.059981102114911
0.057671006228138
0.055094154617273
0.052561817096289
0.05014143649106
0.047782243982039
0.045432384216025
0.04307430640964
0.040712829815083
0.038357734875125
0.036015584691806
0.033689098838473
0.031379181319336
0.029086633427253
0.026812838945408
0.024559734850374
0.022329516858373
0.020124416340122
0.017946669660055
0.015798580390807
0.013682546260076
0.01160103351707
0.0095565277082231
0.0075515039328052
0.0055884184597803
0.0036696608054727
0.0017975975213038
-2.5492499746421e-05
-0.0017974690078223
-0.0035163567616506
-0.0051802474106146
-0.0067873274754744
-0.0083358487896621
-0.0098242612938955
-0.011251052099636
-0.012615009491126
-0.013914875598213
-0.015149916699271
-0.016319079274263
-0.017422265940094
-0.018458314781446
-0.019428147938773
-0.02032969198175
-0.021165945188283
-0.021931925189292
-0.022634894258014
-0.023261076518099
-0.023822799150935
-0.024269739290035
-0.024576185282571
0.063071222683472
0.060559133346986
0.057730967900239
0.054959947847669
0.052323318018983
0.049757399755199
0.047199786700006
0.044630763902911
0.042057280166993
0.03949129612693
0.036940312945899
0.034407223427638
0.031892971052988
0.029398506494473
0.026925474644996
0.024476126808854
0.022052972379743
0.019658529077086
0.01729530018364
0.014965860331818
0.012672892751822
0.010419160716261
0.0082074515772147
0.0060405389568435
0.0039211723996038
0.0018520328520879
-0.00016420811276738
-0.0021249882209681
-0.0040278985951882
-0.0058707063145845
-0.0076512583553733
-0.0093674986872767
-0.011017440858155
-0.012599313156616
-0.014111381682841
-0.0155522579369
-0.016920471589778
-0.018215190175221
-0.019435139325069
-0.020580237006033
-0.021649038890041
-0.022642662365803
-0.02355855590248
-0.024400347344512
-0.025161894944886
-0.025852327261126
-0.02645455018905
-0.026985716014577
-0.027385118081212
-0.027633732179465
0.066383249153394
0.063661635935403
0.060563885185808
0.057541718543939
0.054679910995974
0.051897385542256
0.049119946570563
0.046326534737189
0.043527110945193
0.040736126803805
0.03796198677694
0.035207696533857
0.032474269445821
0.0297628949603
0.027075576705956
0.024414968608221
0.021783971323187
0.019185461525068
0.016622284223386
0.014097360624657
0.011613731348016
0.0091745239973479
0.0067828924301456
0.004441974299358
0.0021548814506582
-7.5343970047547e-05
-0.0022456777812126
-0.0043532100700775
-0.0063952025135125
-0.0083691116247433
-0.010272499422652
-0.012103010075395
-0.013858377285722
-0.015536546274359
-0.017135541326878
-0.018653733578901
-0.02008943383661
-0.021441654379619
-0.022708888925251
-0.023891058543888
-0.024986374288062
-0.025996236074669
-0.026917480164626
-0.02775457058785
-0.028500049495205
-0.0291652411596
-0.029729400968054
-0.030215329122076
-0.030550677999974
-0.030726421583545
0.069910458458756
0.066973496431194
0.063594340747156
0.060310409422059