/*--------------------------------*- C++ -*----------------------------------*\
| =========                 |                                                 |
| \\      /  F ield         | OpenFOAM: The Open Source CFD Toolbox           |
|  \\    /   O peration     | Version:  2112                                  |
|   \\  /    A nd           | Website:  www.openfoam.com                      |
|    \\/     M anipulation  |                                                 |
\*---------------------------------------------------------------------------*/
FoamFile
{
    version     2.0;
    format      ascii;
    arch        "LSB;label=32;scalar=64";
    class       volScalarField;
    location    "12.7";
    object      p;
}
// * * * * * * * * * * * * * * * * * * * * * * * * * * * * * * * * * * * * * //

dimensions      [0 2 -2 0 0 0 0];

internalField   nonuniform List<scalar> 
22000
(
0.020877350420886
0.020855914584008
0.020811739153967
0.020743648539458
0.020651121590081
0.020534195964793
0.020393161372906
0.020228332091126
0.020039958925691
0.019828241018094
0.019593370212552
0.019335567833574
0.019055093430279
0.018752245793022
0.018427351764487
0.018080772937103
0.017712891817391
0.01732413296255
0.016914933073294
0.016485788672981
0.016037187719037
0.015569714244877
0.015083892693933
0.014580424665219
0.014059834844734
0.013523004141563
0.012970366373421
0.01240311209346
0.01182137288249
0.01122689293838
0.021278792673361
0.021256130257252
0.021210387136571
0.02114049636267
0.021045907859595
0.020926589276903
0.020782774399638
0.02061474820263
0.020422747411652
0.020206961366307
0.019967571026466
0.019704786461053
0.019418854120117
0.019110060708433
0.01877871839822
0.018425177841987
0.018049805896064
0.017653020333053
0.017235240923559
0.016796966197555
0.016338662075287
0.015860930300717
0.015364258124594
0.014849394180201
0.014316785239187
0.013767416752448
0.013201545127883
0.012620563267093
0.012024185172332
0.011414421765686
0.022015656056827
0.021992091368996
0.021944616754844
0.021872232499629
0.021774429782404
0.021651173484452
0.02150267165685
0.021329180729526
0.02113091268721
0.020908036089628
0.020660710841911
0.020389125674937
0.020093502219089
0.019774104125655
0.019431216388806
0.019065169050845
0.018676300145949
0.018265013806316
0.017831697247923
0.017376849878411
0.016900894762215
0.01640446405363
0.015887975206924
0.015352268125148
0.014797649342661
0.01422532469851
0.013635237810441
0.013029244966895
0.012406310514075
0.011769130077836
0.023041431066991
0.023016880033874
0.022967422813293
0.022892036809657
0.022790210606787
0.022661905842165
0.022507316772505
0.022326676824469
0.022120168569923
0.021887928895616
0.021630083069846
0.021346785190731
0.021038217982794
0.020704608724588
0.020346199364014
0.019963285532762
0.019556158113787
0.019125195612927
0.018670731708068
0.018193260510931
0.017693136128595
0.017171027295975
0.016627242436925
0.016062744843928
0.015477628125286
0.014873402599435
0.014249539102861
0.013608528292281
0.01294820577028
0.012272193289632
0.02431599184214
0.024290336211722
0.024238649002103
0.024159869167401
0.024053467003638
0.023919389344658
0.023757808961293
0.023568928913755
0.023352891866147
0.02310978927931
0.022839695305202
0.022542712153822
0.022218964608685
0.021868624822127
0.021491870185341
0.021088942377853
0.020660060786201
0.020205559818414
0.019725691634755
0.019220931215111
0.018691529364477
0.018138188580574
0.017561059579521
0.016961251228352
0.016338562691934
0.015694883510797
0.015029052625507
0.014344374465243
0.013637221337719
0.012912441753793
0.025803964398424
0.025777156696585
0.025723141744806
0.025640817930939
0.025529631807949
0.025389505116395
0.025220575966372
0.025023002663447
0.024796872127027
0.024542213136487
0.024259029242137
0.023947349961795
0.023607218761823
0.023238728958199
0.022841966403673
0.022417093363889
0.021964226976118
0.021483632245489
0.020975444516
0.020440098121519
0.019877698150877
0.019288970144919
0.018673851206882
0.018033609259782
0.017367661156684
0.016678344595213
0.015963706783638
0.015228036338131
0.014465907370411
0.01368365809444
0.027473400929292
0.027445482357985
0.027389219089941
0.027303468400797
0.027187648651301
0.027041646209909
0.026865550079736
0.02665945724894
0.026423380568211
0.026157266319937
0.025861025212753
0.025534590117348
0.025177896089796
0.024790929557267
0.024373652865029
0.023926117827292
0.023448302391976
0.022940370075069
0.02240229672424
0.021834446434516
0.021236727868241
0.020609869218187
0.019953528224894
0.019269135675031
0.018555629404415
0.017815849301137
0.017046880424253
0.016254143681333
0.015430069132652
0.014582700982298
0.029294734864192
0.029265832298406
0.029207572511122
0.029118772919739
0.028998819414501
0.028847552248399
0.028664996194725
0.028451169419147
0.028205991074801
0.027929303458862
0.02762090015319
0.027280590923758
0.026908172280949
0.026503492037219
0.026066352752016
0.02559665969327
0.025094208935187
0.024559023758777
0.023990870514136
0.023390005011731
0.022756079707357
0.022089794910514
0.021390453779519
0.020659639527689
0.019895702801722
0.019102024265372
0.018274547822989
0.017419949801174
0.016528167374545
0.01560911538247
0.03124013158731
0.031210452734831
0.031150610987251
0.031059387105119
0.030936130777615
0.030780625292867
0.030592815786889
0.030372623753738
0.030119854612468
0.029834224579648
0.029515384908972
0.029162994418332
0.028776679065319
0.028356113799062
0.027900902017708
0.02741076238954
0.026885261874973
0.026324238986942
0.025727194286848
0.025094229021307
0.024424671540876
0.023719151958265
0.022976532695783
0.022198525173441
0.02138277537378
0.020533222652611
0.019644485292309
0.018724591157702
0.017760636867551
0.016764504870274
0.033283160831931
0.033252987330036
0.033192127177581
0.033099328293089
0.032973900881262
0.032815561245081
0.032624160434499
0.032399506249786
0.032141271073853
0.031849023518293
0.031522247732693
0.031160423765089
0.030762974727152
0.030329367472232
0.029858965502836
0.029351258342164
0.028805533851828
0.028221396639404
0.02759802090024
0.0269352996926
0.026232163315452
0.025489118723946
0.02470449449245
0.023880087651675
0.023012711575747
0.022106856558728
0.021155624820144
0.020168451288025
0.019129255506475
0.018051914927318
0.035398692073807
0.035368368123233
0.035307184578618
0.035213856581611
0.035087650187287
0.034928206595151
0.034735271218862
0.034508523756803
0.03424748660194
0.033951561240874
0.033620041907103
0.033252203552659
0.032847235659267
0.032404362418727
0.031922667534813
0.03140136797165
0.030839422356359
0.030236148756931
0.029590333288764
0.028901599655972
0.028168404858329
0.027391066460436
0.026567285401371
0.025698882833896
0.024781716268846
0.023820780907915
0.022807475554095
0.021752629904303
0.020636646744139
0.019475324007386
0.037562966499241
0.037532883344484
0.037472168002483
0.03737950789229
0.03725412153306
0.037095567299514
0.036903475319091
0.036677385509982
0.036416656631433
0.036120507067123
0.035788022308954
0.035418249267228
0.03501011675792
0.034562574112555
0.034074388775364
0.033544462274555
0.032971377376461
0.032354109662861
0.031691000061124
0.030981330873592
0.030223018802703
0.029416102340583
0.028557579607043
0.027649190173395
0.026685754382177
0.025672652758981
0.02459949221706
0.023478318171952
0.022285783975669
0.021039329603253
0.039753728762857
0.039724311238828
0.039664919467162
0.039574225110646
0.039451400770827
0.039295916797445
0.039107280587701
0.038884884010855
0.038627912791442
0.038335390087539
0.038006178158249
0.037639077762871
0.037232736179001
0.036785800415438
0.036296691487308
0.035763955097527
0.035185758395694
0.034560676909234
0.033886558033356
0.033162260885713
0.03238510828825
0.031554743200762
0.030667413267983
0.029724604505334
0.028720102810433
0.02765939667819
0.026530440105963
0.02534610959508
0.024079262909536
0.022748308126736
0.04195038529366
0.041922075292569
0.041864896922434
0.041777522316737
0.041659083909606
0.041508961836477
0.041326536152633
0.041111046093513
0.040861500117994
0.040576720754413
0.040255339306344
0.039895898079182
0.03949674753058
0.039056212235404
0.038572343648162
0.038043299819711
0.037466796935212
0.036840962894797
0.036163101788949
0.035431580759234
0.034643065573079
0.033796700406378
0.03288791772512
0.03191778458266
0.030879007037307
0.029776913496029
0.028597854871018
0.027355017954632
0.026018479152762
0.02460637236964
0.044134181407597
0.044107422975349
0.044053353921877
0.04397066497812
0.043858456717189
0.04371602070416
0.043542609188046
0.043337308876094
0.043098951953535
0.042826161140181
0.042517336007851
0.042170757360862
0.041784471871853
0.041356470354744
0.040884418146193
0.040366065562238
0.039798648794995
0.039179814623313
0.038506275110197
0.037775855540483
0.036984488223347
0.036130753291066
0.035209149587107
0.034220257980435
0.033155515706305
0.032020058741636
0.030798314809551
0.02950387334883
0.028103312443224
0.026614688542001
0.046288354683943
0.046263580173522
0.046213493732322
0.046136824822565
0.046032652894021
0.045900185459686
0.045738550664389
0.045546688006628
0.04532326028629
0.045066697930336
0.044775175433513
0.044446717165113
0.044079068439765
0.043669886098905
0.043216443642927
0.042716073512353
0.042165514293703
0.041561909718838
0.040901343791895
0.040181059572998
0.039396192275769
0.038544695679456
0.037620034530571
0.036622223674981
0.035541278944975
0.03438206431378
0.033126829886213
0.031789468112686
0.030332530805401
0.02877360246968
0.048398241190749
0.048375857912535
0.048330579307662
0.048261194557777
0.04816677399067
0.048046448558755
0.047899230030542
0.047723920971914
0.047519027671227
0.047282802448133
0.047013208870223
0.046708028348538
0.046364716717291
0.045980606925407
0.045552587108805
0.04507757496657
0.044551806557406
0.043971913720513
0.043333330992246
0.042632693807279
0.041864290694243
0.04102539977534
0.040108358140263
0.039112540628674
0.038026388911537
0.036854415804331
0.035576455428547
0.034206620737926
0.032702886100784
0.031081857094098
0.05045132741484
0.050431707095403
0.050391990521327
0.050331049038266
0.050247957820856
0.050141781034923
0.050011425396557
0.049855571084281
0.049672585699334
0.049460563420301
0.049217278282131
0.048940290372872
0.048626787743855
0.048273799922692
0.047877848210569
0.047435451172395
0.04694235295678
0.046394679020146
0.045787208660773
0.045115960870235
0.044374346246171
0.043558938375595
0.042660869790978
0.041678814915616
0.040599478972785
0.039426938069699
0.038138331682088
0.036747992434983
0.035208754376372
0.033535887430919
0.052437242654496
0.052420713737393
0.052387227244268
0.052335757834748
0.052265399207053
0.052175161667171
0.052063863127835
0.051930080504066
0.051772065144206
0.05158777710878
0.051374827844723
0.051130583849215
0.050851996325474
0.050535820980592
0.050178244114321
0.049775412241182
0.049322605277299
0.04881546142093
0.048248119789973
0.047615986671505
0.046911585466818
0.046130773989295
0.045263432658621
0.044307512511766
0.043247847511264
0.042088003544193
0.040802038707056
0.039404432340529
0.037842181712184
0.036129347351156
0.054347693973951
0.054334539750731
0.054307857417085
0.054266743850671
0.054210324153495
0.054137568672615
0.054047225896488
0.053937792330326
0.053807430749608
0.053653995884878
0.053474970180647
0.053267559378133
0.053028517517662
0.052754360913212
0.052440985418111
0.05208419836222
0.051678864303657
0.051220159914721
0.050701631713379
0.050118081535637
0.049461177273102
0.04872604006241
0.047901303021375
0.046984151648436
0.045957560315121
0.044824506505061
0.043555863919224
0.042165775632962
0.040594437705351
0.038854705869535
0.056176344267671
0.056166805475685
0.056147411566835
0.056117390572727
0.056075911385574
0.056021922559806
0.055954123734823
0.055870954524993
0.055770519300512
0.055650596519146
0.055508577441835
0.055341544659525
0.055146107865898
0.054918584723824
0.054654643927668
0.054349785753084
0.053998534740831
0.053595618845941
0.053134088143785
0.05260812038678
0.052008652116818
0.051329989541771
0.050559647060805
0.0496938794758
0.048713914608014
0.04762207079976
0.046386307751122
0.04502048603939
0.043456855108151
0.041703783358765
0.057918654590649
0.057912917062173
0.057901198584215
0.05788285881636
0.057857126489264
0.057822945896291
0.057778976709773
0.057723623776851
0.057654974041392
0.057570765079007
0.057468335513733
0.057344673838149
0.057196296864603
0.057019360661129
0.056809391509373
0.056561616964658
0.056270344594796
0.055929846039207
0.055532848362115
0.055072801898029
0.054540189884634
0.053928250532589
0.053223830283497
0.052421748976418
0.051501993611388
0.050465371912079
0.049277365715269
0.047952504690117
0.046415396870462
0.044669548367376
0.059571772813843
0.059569889126771
0.059566036917645
0.059559735230098
0.059550308177781
0.059536717564149
0.059517576216479
0.059491243520932
0.059455801845356
0.059408989919519
0.059348163144976
0.059270268107404
0.059171780355737
0.059048713176318
0.058896512752355
0.058710133556141
0.058483799071724
0.058211288517869
0.057885275424018
0.057498282801031
0.057040857839001
0.056504555184272
0.055876645010838
0.055149081006021
0.054302772063427
0.0533336749947
0.052207355533851
0.050933364113694
0.049434402892457
0.047717862221157
0.061134582729137
0.061136406323092
0.061140217752572
0.061145862689389
0.061152802699773
0.061159990890712
0.061166080590516
0.061169451855481
0.061168121173524
0.061159758393706
0.061141738559057
0.061111024757383
0.061064147010521
0.06099707002665
0.060905256448783
0.060783403953274
0.060625713095076
0.060425359418003
0.060175128357413
0.059866328525092
0.059490161230327
0.059035618789318
0.058492028353167
0.057846019954744
0.057083785075573
0.056189399434295
0.05514037016038
0.053918014064077
0.05245946576287
0.050739038619726
0.062608051145144
0.062613533555012
0.062624452176776
0.062641576474901
0.062664478134767
0.062691801331583
0.0627223136871
0.062754745613796
0.062787228583528
0.062817398751628
0.062842546713841
0.062859522067281
0.062864837665646
0.062854472180106
0.062824064730905
0.062768355084121
0.062681767913288
0.062557097667877
0.062387254854314
0.062162313785779
0.061874079766895
0.061508726588186
0.061058248039364
0.060502033293066
0.059835453520011
0.059025985343985
0.058079149761212
0.056929687905575
0.055572373773675
0.053769075021061
0.010656747399093
0.010113580848329
0.0095610423355991
0.0090002772860026
0.0084323309818789
0.0078580158766318
0.0072780002564285
0.0066929346762346
0.0061035124677551
0.0055104721279415
0.004914580867205
0.0043166172500012
0.0037173594823245
0.0031175822797806
0.0025180580259426
0.0019195565549755
0.0013228434355849
0.00072867745166337
0.00013780801378429
-0.00044902669521069
-0.0010311015873865
-0.0016077042446802
-0.0021781318888718
-0.0027416834699327
-0.00329765850784
-0.0038454560832125
-0.0043847055903424
-0.0049148833958067
-0.0054354044547091
-0.0059457191866939
-0.0064453488598257
-0.0069338775143285
-0.0074109375617805
-0.0078761991147801
-0.0083293714388463
-0.0087701992584129
-0.0091984704786918
-0.0096140067802432
-0.010016678873705
-0.010406384050885
-0.010783078586392
-0.011146726717036
-0.011497374212749
-0.01183503732362
-0.012159867327487
-0.01247190481584
-0.012771449945565
-0.013058518883782
-0.013333703451957
-0.01359695039849
0.010832520878705
0.010280904701089
0.0097185590393123
0.0091477841704928
0.0085701181919843
0.0079862720295162
0.0073966198937045
0.0068015967092857
0.0062018078375596
0.0055979807203335
0.0049908979351196
0.004381352999147
0.0037701316687428
0.0031580152628018
0.0025457916272836
0.0019342586844342
0.001324219903217
0.00071647923596908
0.00011183801004238
-0.00048890836722394
-0.0010849752601403
-0.0016755960285535
-0.0022600331911754
-0.0028375973459909
-0.0034076626275984
-0.0039695620201647
-0.0045224232504851
-0.0050655979008187
-0.0055985576745355
-0.0061208032416217
-0.0066318444089192
-0.007131212835885
-0.0076184799881083
-0.0080932590070632
-0.0085552118200007
-0.0090040405651985
-0.0094395009829478
-0.0098613828488774
-0.010269539066807
-0.010663840283786
-0.01104424111238
-0.011410678629207
-0.011763221857013
-0.012101842717536
-0.012426755480021
-0.012737896270701
-0.01303568905228
-0.013319848578286
-0.013591099251319
-0.013848272838738
0.011163211587059
0.010589233304585
0.010001408243303
0.0094046646795851
0.0088017996054228
0.0081934921838107
0.0075796392002828
0.0069603358574742
0.0063360962677909
0.0057076985926597
0.0050760130543528
0.004441902764175
0.0038061923524985
0.003169686796584
0.0025332014023137
0.0018975712352166
0.0012636424869984
0.00063226352325701
4.2804644622525e-06
-0.0006194667266336
-0.0012381498998233
-0.0018509563755333
-0.0024570892987389
-0.003055762101916
-0.0036461887911907
-0.0042276023605803
-0.0047993350684827
-0.0053607311595104
-0.0059111704959273
-0.0064500727753511
-0.0069768973332232
-0.0074911408385585
-0.0079923456786351
-0.0084800969138093
-0.0089540348586403
-0.009413840350229
-0.0098592582631969
-0.010290061678348
-0.010706105099336
-0.011107241483657
-0.011493445459011
-0.011864624822506
-0.012220903059281
-0.012562185364402
-0.012888809571641
-0.013200538103579
-0.013498048796055
-0.013780545176203
-0.014049087542564
-0.014300522778153
0.011630662701801
0.011021378359967
0.010393919916622
0.0097573958907172
0.0091164743519261
0.0084716947438641
0.0078221715692685
0.0071674664855745
0.0065079543944358
0.0058444847007
0.0051780414566304
0.0045095654951613
0.0038399094780825
0.0031698815923114
0.0025003048572598
0.0018320361169254
0.0011659514903185
0.00050293243623642
-0.00015613877909087
-0.00081038231050566
-0.0014589263884078
-0.0021009113139624
-0.0027354921904389
-0.0033618438590322
-0.0039791708368853
-0.0045867119441181
-0.0051837194082179
-0.0057694877111445
-0.006343351994984
-0.0069046863561146
-0.0074529088872144
-0.0079874793010209
-0.0085079083904
-0.0090137497239371
-0.0095046172806291
-0.0099801616873332
-0.010440107670472
-0.010884197502666
-0.011312276514571
-0.011724161430967
-0.012119838545831
-0.012499159387458
-0.012862301126793
-0.013209056768463
-0.013539907941002
-0.01385434662174
-0.014153359840689
-0.014435358092891
-0.014701732791446
-0.014946211629436
0.012225429900001
0.01156954766845
0.01088981827876
0.010201134106501
0.0095106335826286
0.0088185670089787
0.008122933160285
0.0074225639814306
0.0067176605564817
0.0060091788816252
0.0052982537219016
0.0045859191238423
0.0038730524167313
0.0031604546399459
0.0024489486982223
0.0017394102602965
0.0010327451062485
0.00032986754587102
-0.00036830504864889
-0.0010608552685819
-0.0017468730954128
-0.0024254610714817
-0.0030957369833808
-0.0037568365204353
-0.0044079179512523
-0.0050481663341526
-0.0056767964427046
-0.0062930563741394
-0.0068962337533581
-0.0074856561983793
-0.0080606981453739
-0.0086207768843436
-0.0091653644210268
-0.0096939744001425
-0.010206186073446
-0.010701610758178
-0.011179945071363
-0.01164089048409
-0.012084275929812
-0.012509869232408
-0.012917662069121
-0.013307430509138
-0.013679402062398
-0.014033219850143
-0.014369518598744
-0.014687431942277
-0.014988304284398
-0.015269522252415
-0.015532866714406
-0.015768064388503
0.012942483885156
0.012229542187585
0.011485491241748
0.010732795514505
0.0099817116545296
0.0092320288715005
0.0084802718994362
0.0077243445296136
0.0069642541315923
0.0062011151130857
0.0054362596622337
0.0046708356365219
0.0039057453989784
0.0031417753628215
0.0023797434395065
0.0016205444912203
0.00086511627000342
0.00011440777503658
-0.00063062751809678
-0.0013690340947957
-0.0020998626942205
-0.0028221755424042
-0.0035350476972137
-0.0042375687126801
-0.0049288482875593
-0.0056080245131211
-0.0062742674380962
-0.0069267786671081
-0.0075647980956738
-0.008187605087555
-0.0087945272145793
-0.0093849346793778
-0.009958254703777
-0.010513954636432
-0.011051572599842
-0.01157067365074
-0.01207091975297
-0.012551963528226
-0.013013611268239
-0.013455572423824
-0.013877839351321
-0.01428010341905
-0.014662642933807
-0.015024938438559
-0.015367795083202
-0.015689933860153
-0.015993110825947
-0.016273457593748
-0.016533133292699
-0.016756953380893
0.013779624495117
0.012999643366795
0.012179479335337
0.01135120353171
0.010528885602176
0.0097116298600153
0.008894078249459
0.0080729938600602
0.0072481802672442
0.0064209750839533
0.0055929612248025
0.0047654208984507
0.0039392795560504
0.0031153009414486
0.0022942937260397
0.0014771731334465
0.00066491260434575
-0.00014150108369552
-0.00094107614448995
-0.001732816608892
-0.0025157313003849
-0.003288839339922
-0.0040511706539612
-0.0048017674662584
-0.005539691166177
-0.0062640311930532
-0.0069739056839696
-0.0076684644126776
-0.0083468955040503
-0.009008425749514
-0.0096523299017079
-0.0102779243329
-0.010884583890439
-0.011471721728105
-0.012038825845033
-0.012585405983499
-0.013111079289028
-0.013615437997139
-0.014098254155073
-0.014559163904466
-0.014998146153672
-0.01541479085943
-0.015809406793703
-0.016181304856384
-0.016531436671161
-0.016858124208438
-0.017163556672165
-0.017442517660981
-0.017697670766677
-0.017907616613527
0.014737333091549
0.01388066242153
0.012972654220035
0.01205733155626
0.011153328761087
0.010258772421303
0.0093659472920733
0.0084702442453527
0.0075712661937816
0.0066706561557002
0.0057703081159564
0.0048716589054406
0.0039756539799395
0.0030830258509017
0.0021945706265913
0.001311227172026
0.00043401026503803
-0.0004360502111199
-0.0012979197177221
-0.0021505581003
-0.0029929286847488
-0.0038240038936863
-0.004642764755602
-0.0054482019706567
-0.006239323394937
-0.0070151637182353
-0.0077747836615769
-0.0085172749090516
-0.0092417667357196
-0.0099474259581949
-0.010633466629273
-0.011299143280703
-0.011943768751952
-0.012566692943886
-0.013167342348269
-0.013745161170884
-0.014299707684701
-0.014830502898005
-0.015337268603981
-0.015819554471211
-0.016277309663857
-0.01671000365376
-0.017117954265681
-0.017500281496825
-0.01785800405321
-0.018189062928434
-0.018495807141156
-0.018771740655497
-0.019019529423577
-0.019211087348811
0.015818186002389
0.014875389898855
0.013867703978779
0.012853815636655
0.011857743423968
0.010876264788535
0.0098987585039727
0.008918989914567
0.0079363773301951
0.0069529708257592
0.0059710470234105
0.0049922182100441
0.0040174431055572
0.0030474141658664
0.0020829142446146
0.0011249119215827
0.00017447164806436
-0.0007673266697839
-0.0016994003756701
-0.0026206600220929
-0.003530018198572
-0.0044263951729279
-0.0053087171578333
-0.0061759169736166
-0.0070269421174422
-0.0078607658337218
-0.0086763845784292
-0.0094728243405592
-0.010249147356857
-0.011004452298054
-0.011737883149408
-0.01244862312835
-0.013135912270177
-0.01379902677237
-0.014437317872564
-0.015050153929124
-0.015637017003513
-0.016197347096531
-0.016730792425557
-0.017236806212808
-0.017715281139578
-0.018165542712651
-0.018587912959305
-0.018981237364954
-0.01934669240756
-0.019681609908531
-0.019988728559762
-0.020259851609911
-0.020497596585721
-0.020666408198329
0.017026263846229
0.015988047878357
0.014868659305896
0.013744572725276
0.012646056909742
0.011568063566967
0.010496444810733
0.0094230844738618
0.0083472581252532
0.0072715426414198
0.0061986714126706
0.0051304499440424
0.0040678420958487
0.003011490900468
0.0019621661924249
0.00092087501524217
-0.0001112576407293
-0.0011330923550773
-0.0021434907077444
-0.00314130748774
-0.0041253979455793
-0.0050946230957844
-0.0060478468470872
-0.0069839365143822
-0.0079017714160445
-0.0088002553356273
-0.0096783119167071
-0.01053489291608
-0.011368984079421
-0.012179605856579
-0.012965821514345
-0.013726732099176
-0.014461492255275
-0.015169292232485
-0.015849394359965
-0.016501077049879
-0.01712373028001
-0.017716697953399
-0.018279535877485
-0.018811587908791
-0.019312659195592
-0.019781939891837
-0.020219683771877
-0.020624528835538
-0.020997674640085
-0.021335936567145
-0.02164237314661
-0.021906934289138
-0.022132374270721
-0.022274314303371
0.018366613826141
0.017223747402792
0.015980377380506
0.014734343378073
0.013523058707451
0.012339020995516
0.011163828053545
0.0099872239499961
0.0088084339701417
0.0076307207822759
0.0064573551602564
0.0052903423093899
0.0041306353491574
0.0029788215661725
0.0018356635483964
0.00070221798129175
-0.00042031700667104
-0.0015307315130336
-0.002627822727155
-0.0037103817937477
-0.0047771983448519
-0.0058270652557445
-0.0068587748013091
-0.0078711195135583
-0.0088629010890424
-0.0098329444643828
-0.010780090557624
-0.011703206545421
-0.012601190651837
-0.013472974415811
-0.014317527777242
-0.015133857244988
-0.015921018310576
-0.016678102094169
-0.017404265324897
-0.018098683629934
-0.018760635751503
-0.019389357130885
-0.019984288894154
-0.0205446515766
-0.021070145067385
-0.021559795817522
-0.022013790764064
-0.022430514006508
-0.022811189927487
-0.023152106618514
-0.023456545990481
-0.023712592852011
-0.023922772430447
-0.024032852892192
0.019844900358181
0.01858807105342
0.017208150360472
0.015828358613369
0.014494065895268
0.013194515783628
0.011906254286849
0.010616637223732
0.0093249703120717
0.0080353943061981
0.00675180698475
0.0054764104003533
0.0042101225220837
0.0029534685273032
0.0017072157919001
0.00047248861525023
-0.00074942590279177
-0.0019572343348258
-0.0031496584563503
-0.004325416295469
-0.0054832221496839
-0.0066217901250508
-0.0077398297726736
-0.008836047858636
-0.0099091573920106
-0.010957893362892
-0.011981002378942
-0.012977255620977
-0.013945451265695
-0.014884419069119
-0.01579302195726
-0.016670158882915
-0.017514770021133
-0.018325833437525
-0.019102383218932
-0.019843477468864
-0.02054826362939
-0.021215855489526
-0.021845556262706
-0.022436451592221
-0.022988110901145
-0.023499378978733
-0.02397036352967
-0.02439913862702
-0.024786968029652
-0.025129507474817
-0.025430217332828
-0.025675223820938
-0.025866487841763
-0.025939016549004
0.021466938800984
0.020086713224066
0.018557320491204
0.017031988075153
0.015564675449314
0.014140274068854
0.012729410844256
0.011316880605097
0.0099022685817888
0.0084908039588714
0.0070870950584489
0.0056935301097367
0.0043109637433264
0.0029398558485779
0.0015809970952806
0.00023560202108157
-0.001094934376207
-0.0024092208592728
-0.0037058920938949
-0.004983581120315
-0.0062409141190066
-0.0074765130528589
-0.0086889912070492
-0.0098769563706494
-0.011039019888201
-0.012173813933676
-0.013279977828757
-0.014356173041741
-0.015401083941134
-0.016413424692926
-0.017391936057074
-0.018335393802639
-0.019242607157505
-0.020112424970542
-0.020943740607832
-0.021735477728624
-0.022486635830792
-0.023196186050319
-0.02386327969221
-0.024486842922427
-0.025066301578553
-0.025600294132027
-0.026088834817389
-0.026529655605234
-0.026924080239331
-0.027267043719202
-0.027562272450816
-0.02779375103983
-0.02796273394273
-0.027992439059123
0.023237741953195
0.021724837801657
0.020033118646251
0.018350622054059
0.016740493213033
0.015182040127467
0.013639034623702
0.012093592449647
0.010545853062234
0.009002363555491
0.0074685064214774
0.0059468287184758
0.0044380933884329
0.0029426981474464
0.0014614829284516
-4.2171855741981e-06
-0.0014528762831943
-0.0028829889960162
-0.0042930886822145
-0.0056817092734209
-0.0070473734868659
-0.0083885948229363
-0.0097038742509921
-0.010991704891191
-0.01225058122054
-0.013479017366581
-0.014675530579712
-0.015838657173708
-0.01696695274853
-0.018058998772092
-0.019113398658819
-0.020128787563648
-0.021103826947349
-0.022037217693914
-0.022927696860809
-0.023774033282953
-0.024575061890991
-0.025329591191333
-0.026036604759201
-0.026694850082635
-0.027303592341472
-0.027861249502061
-0.028367727063886
-0.028820389681507
-0.029220664789005
-0.029562622637958
-0.02985049878497
-0.030065758716944
-0.030209019574384
-0.030190778121151
0.025160922505018
0.023506850661886
0.021640247942166
0.019789328040163
0.01802694669106
0.016325423159794
0.014640742360097
0.012952326315701
0.011261214233021
0.0095755053222913
0.0079013936320504
0.0062415384333505
0.0045965821433042
0.0029668757121461
0.001353345870947
-0.00024251729741619
-0.0018190318543143
-0.0033745597195122
-0.0049075164967557
-0.006416318761026
-0.0078993661142746
-0.0093550439418082
-0.010781722199497
-0.012177761116066
-0.013541520747426
-0.014871379237521
-0.016165714636082
-0.0174229195568
-0.018641404242639
-0.01981959882732
-0.020955952610901
-0.022048938577147
-0.023097056493804
-0.024098835976874
-0.025052844259574
-0.025957670409799
-0.026811975065356
-0.027614377531653
-0.028363686151416
-0.029058446036995
-0.029697757657666
-0.030279800091986
-0.030804368453016
-0.031268448931993
-0.0316735891899
-0.032012906802753
-0.032291404157598
-0.032487372109887
-0.032601511227323
-0.032529772104585
0.027238663002613
0.025435610372344
0.023382134506027
0.021352237356211
0.0194287663783
0.017575475207565
0.015739688852542
0.013898256369947
0.012053546532252
0.010215453058933
0.0083909836462207
0.0065828336497591
0.0047914969270058
0.0030173105192996
0.0012613403957332
-0.00047472613824433
-0.0021890247642722
-0.0038797651176881
-0.0055452243015262
-0.0071836789117259
-0.0087933814016351
-0.010372564663987
-0.011919445353734
-0.013432229935052
-0.014909123440797
-0.01634834771549
-0.017748121619913
-0.019106672753043
-0.020422247625057
-0.021693101715947
-0.02291751353741
-0.024093768710572
-0.025220192443963
-0.026295112539946
-0.027316922872913
-0.028283993560565
-0.029194816993581
-0.030047777718328
-0.030841527487822
-0.031574359288972
-0.032245239342425
-0.032852066287605
-0.03339456095392
-0.033869321526428
-0.03427802544195
-0.034612892377578
-0.034879720435719
-0.035053338266676
-0.035135580951019
-0.035003448559715
0.029471482249436
0.027512240777922
0.025260683998225
0.023042285601396
0.020949723369672
0.01893640955177
0.016940271289342
0.014935903665339
0.01292752116477
0.010927030915434
0.0089422036349899
0.0069756726250848
0.005027766574859
0.0030988631976818
0.0011902333463521
-0.00069619521020341
-0.0025583485679603
-0.0043942595737419
-0.0062020407551275
-0.0079797999584963
-0.0097256134182502
-0.011437532625556
-0.013113592657114