/*--------------------------------*- C++ -*----------------------------------*\
| =========                 |                                                 |
| \\      /  F ield         | OpenFOAM: The Open Source CFD Toolbox           |
|  \\    /   O peration     | Version:  2112                                  |
|   \\  /    A nd           | Website:  www.openfoam.com                      |
|    \\/     M anipulation  |                                                 |
\*---------------------------------------------------------------------------*/
FoamFile
{
    version     2.0;
    format      ascii;
    arch        "LSB;label=32;scalar=64";
    class       surfaceScalarField;
    location    "7.4";
    object      phi;
}
// * * * * * * * * * * * * * * * * * * * * * * * * * * * * * * * * * * * * * //

dimensions      [0 3 -1 0 0 0 0];

oriented        oriented;

internalField   nonuniform List<scalar> 
43645
(
0.39512361291137
-4.7397774675347e-06
0.39513786497859
-1.4251983885826e-05
0.39516155700336
-2.3691934682464e-05
0.39519462733169
-3.3070235304764e-05
0.39523703806201
-4.2410636930788e-05
0.39528875077508
-5.1712620681367e-05
0.39534971959825
-6.0968732607634e-05
0.39541989482684
-7.0175140125987e-05
0.3954992092515
-7.9314338549844e-05
0.39558755984533
-8.8350510045741e-05
0.39568478767109
-9.7227744419579e-05
0.39579070420684
-0.00010591645673654
0.39590512355979
-0.00011441927631762
0.39602794511606
-0.00012282148182369
0.39615916236664
-0.00013121717833595
0.39629892769336
-0.00013976525640845
0.39644744764459
-0.0001485198828379
0.39660506098458
-0.00015761327317231
0.39677200727454
-0.00016694622465564
0.39694867637766
-0.00017666903896129
0.39713518563399
-0.00018650919325083
0.39733202765739
-0.00019684196098961
0.39753916129953
-0.00020713358034141
0.39775743864756
-0.000218277286439
0.3979865249173
-0.00022908620829857
0.39822797910637
-0.0002414541274088
0.39848062309874
-0.00025264393046819
0.39874727840817
-0.000266655247749
0.39902469705917
-0.00027741859005627
-0.00029353324650195
0.39931823036811
0.37294700452979
-9.1894382769759e-06
0.37296046119438
-2.7708510490923e-05
0.37298298233223
-4.6212932072694e-05
0.3730145132345
-6.4600997329763e-05
0.37305501512759
-8.2912391642121e-05
0.37310445076324
-0.0001011481204979
0.37316277684051
-0.00011929467704
0.37322994522688
-0.00013734339669412
0.37330588809307
-0.00015525707817591
0.3733904992402
-0.00017296153372781
0.37348361408043
-0.00019034246447781
0.37358503578353
-0.0002073380427391
0.373694568004
-0.00022395138285491
0.3738120975097
-0.00024035087645248
0.37393760469598
-0.00025672425643951
0.37407122758426
-0.00027338803900082
0.37421315990624
-0.00029045210158665
0.37436372509937
-0.00030817836505543
0.37452315105974
-0.00032637208567485
0.37469180925864
-0.0003453271399003
0.37486980846624
-0.00036450830419556
0.37505761748923
-0.00038465088809061
0.37525519737527
-0.00040471337118355
0.37546336703551
-0.00042644685165973
0.37568182134922
-0.00044754042713398
0.37591206526233
-0.00047169794525898
0.37615301130445
-0.00049358987701988
0.37640737762616
-0.00052102147439451
0.37667213573636
-0.00054217660779333
-0.00057385397064645
0.37695245655619
0.35201531254147
-1.3604319998172e-05
0.3520285751287
-4.0970955228267e-05
0.35205066749082
-6.8305151302414e-05
0.35208154433763
-9.5477702928582e-05
0.35212117330564
-0.00012254122138898
0.35216951918766
-0.00014949386755546
0.35222653805094
-0.00017631340904491
0.35229217966682
-0.00020298488487841
0.35236637273068
-0.00022945001816035
0.35244900631314
-0.00025559499592959
0.3525399087484
-0.00028124478330287
0.35263887377426
-0.00030630295565682
0.35274569188464
-0.00033076938392057
0.35286023465447
-0.00035489354013751
0.35298246409286
-0.00037895359190847
0.35311250055327
-0.00040342439914282
0.35325051773685
-0.00042846918751852
0.35339682261571
-0.00045448314823814
0.35355162259762
-0.00048117197382015
0.35371527464803
-0.00050897909774721
0.35388786432178
-0.00053709788652834
0.35406984716776
-0.00056663364307851
0.35426115458404
-0.00059602069685642
0.35446259488718
-0.00062788706388231
0.35467382386451
-0.00065876931324696
0.35489634670056
-0.00069422068910698
0.3551290224588
-0.00072626554219737
0.35537459755311
-0.00076659647546144
0.35562995074488
-0.00079752970859932
-0.00084421597934449
0.35590031284873
0.33225842520306
-1.798544223592e-05
0.33227155199648
-5.4097620674385e-05
0.33229339561189
-9.0148638240722e-05
0.3323239083296
-0.00012599029353463
0.3323630568314
-0.00016168959862632
0.3324108065918
-0.00019724350620802
0.33246711290825
-0.00023261960696012
0.33253192183562
-0.00026779369682494
0.33260515499739
-0.00030268306790366
0.33268669188226
-0.00033713177193983
0.33277634807764
-0.00037090087325734
0.33287390238443
-0.00040385716011413
0.33297912689505
-0.00043599379548475
0.33309187424866
-0.00046764079750042
0.33321208513091
-0.00049916438083351
0.33333986151685
-0.00053120069410704
0.33347535628187
-0.00056396386394503
0.33361886140059
-0.00059798818010341
0.33377056326829
-0.00063287375641987
0.33393080705729
-0.00066922280270729
0.33409965356234
-0.00070594430861628
0.33427754949369
-0.00074452949186725
0.33446439256465
-0.00078286368567101
0.33466098789466
-0.0008244823115154
0.3348669433177
-0.00086472465374886
0.33508377990907
-0.00091105719712964
0.33531028877571
-0.00095277432487331
0.33554928837321
-0.0010055959890363
0.33579754917105
-0.0010457904248333
-0.0011071827131257
0.3360605159904
0.31361042523591
-2.2353190472188e-05
0.31362347306412
-6.7145335315079e-05
0.3136451677413
-0.00011184320193761
0.31367546504116
-0.0001562874815573
0.31371433250296
-0.00020055695123682
0.31376173736621
-0.00024464826314237
0.31381763606267
-0.00028851820034929
0.31388197349302
-0.00033213102720609
0.31395466649452
-0.00037537597283886
0.31403558619829
-0.00041805138227936
0.31412453488607
-0.00045984947097817
0.31422127425228
-0.00050059643927885
0.3143255546202
-0.00054027407951121
0.31443720657205
-0.00057929266810491
0.31455614714698
-0.00061810487725878
0.31468245946972
-0.0006575129404556
0.31481627593773
-0.00069778025770835
0.31495787490396
-0.00073958707354756
0.31510742202606
-0.00078242080720521
0.31526525071803
-0.00082705142409879
0.31543139487524
-0.00087208839600183
0.31560629074208
-0.00091942528890691
0.31578979945047
-0.00096637232435957
0.31598272295967
-0.0010174057503722
0.31618462033417
-0.0010666219573896
0.31639703382684
-0.0011234706177356
0.31661868626628
-0.0011744266912573
0.31685247978647
-0.0012393894357013
0.31709506066535
-0.0012883712318436
-0.0013642299821238
0.31735210801058
0.29600906103849
-2.6712270461863e-05
0.29602204144295
-8.0125636121579e-05
0.29604360647872
-0.00013340813428475
0.29607371930705
-0.00018640020794374
0.29611235212775
-0.00023918967235539
0.29615947743023
-0.00029177346847922
0.29621505589493
-0.00034409657071859
0.29627903411992
-0.00039610916051329
0.29635132668771
-0.00044766845190696
0.29643179842896
-0.00049852303749961
0.2965202396867
-0.00054829064567447
0.29661639581242
-0.00059675248456949
0.29671999574759
-0.00064387393706317
0.29683084843602
-0.00069014528126064
0.2969488480595
-0.00073610442794423
0.29707406005418
-0.00078272486424422
0.29720659806688
-0.00083031820150663
0.29734672821796
-0.00087971715708339
0.2974945972988
-0.00093028982193475
0.29765052711805
-0.00098298117799145
0.29781452627042
-0.0010360874838676
0.29798701849456
-0.001091917448714
0.29816783052042
-0.0011471842862011
0.2983577562854
-0.0012073314509866
0.29855631038384
-0.0012651759912773
0.29876504734621
-0.0013322075147672
0.29898262828534
-0.0013920075645003
0.29921202604049
-0.001468787124912
0.29944976863473
-0.0015261137619809
-0.0016162152702438
0.29970175399095
0.27939557462929
-3.1052294479753e-05
0.27940845619637
-9.3007113722969e-05
0.27942984111639
-0.00015479296529042
0.27945970307332
-0.00021626207731591
0.27949802216745
-0.00027750868112919
0.27954477964701
-0.00033853086491762
0.27959994409637
-0.00039926093953538
0.2796634675683
-0.00045963255428447
0.27973526624383
-0.00051946705198328
0.27981520251385
-0.00057845923448322
0.27990305858745
-0.00063614664893611
0.27999856703082
-0.00069226085991535
0.28010143885176
-0.00074674569251
0.28021146445604
-0.00080017082208415
0.28032851845299
-0.00085315836364188
0.28045265127587
-0.00090685762748873
0.28058396111456
-0.00096162798230655
0.28072270358153
-0.0010184595672625
0.28086900982052
-0.001076596005351
0.28102318971783
-0.0011371610202586
0.28118523005877
-0.001198127770439
0.28135553840548
-0.001262225741045
0.28153391223777
-0.0013255580642604
0.28172112857818
-0.0013945477366702
0.28191666651024
-0.001460713868311
0.28212207652912
-0.0015376174776909
0.28233597405631
-0.0016059050351178
0.28256137774009
-0.0016941907518566
0.28279472203705
-0.0017594580035163
-0.001863589868478
0.28304209669472
0.26371450851774
-3.5351286557031e-05
0.2637272259588
-0.00010572447549608
0.26374832496443
-0.00017589189204969
0.26377779270637
-0.00024572974156605
0.26381562030122
-0.00031533620007379
0.26386180136092
-0.00038471185045299
0.26391631643827
-0.00045377594478966
0.26397912743963
-0.00052244348540816
0.26405015688015
-0.00059049642446401
0.26412926966718
-0.00065757195538528
0.26421624511922
-0.00072312203708645
0.26431080821314
-0.00078682389180464
0.26441265743819
-0.00084859485767969
0.26452156953183
-0.00090908285753407
0.26463740464699
-0.00096899342253012
0.26476020203784
-0.0010296549634516
0.26489004914297
-0.0010914750341341
0.26502719328645
-0.001155603658451
0.26517175482128
-0.0012211574890813
0.26532403165915
-0.0012894378076213
0.26548399487593
-0.0013580909375103
0.26565203201769
-0.001430262833296
0.265827920127
-0.0015014461244829
0.26601240903159
-0.001579036592015
0.26620495647232
-0.001653261259907
0.26640708864061
-0.0017397495963982
0.26661739806868
-0.0018162144134983
0.26683891592509
-0.0019157085587678
0.26706801636385
-0.0019885583943741
-0.0021065092251166
0.26731093577179
0.24891352040545
-3.957893790948e-05
0.24892598389565
-0.00011818789857172
0.24894665131441
-0.00019655924409902
0.24897552601024
-0.00027460437166624
0.24901261299115
-0.00035242311674685
0.24905792157723
-0.00043002037367458
0.24911144819322
-0.0005073024996175
0.24917316896148
-0.00058416419397375
0.24924301762225
-0.00066034502733073
0.24932086692527
-0.00073542120200497
0.24940649933954
-0.00080875439678419
0.24949963856298
-0.00087996306214072
0.24959997748015
-0.0009489337235028
0.24970728543853
-0.0010163907658871
0.24982141487864
-0.0010831228141999
0.24994239881389
-0.0011506388513406
0.25007032012889
-0.0012193963031078
0.25020542084592
-0.0012907043302194
0.25034781720727
-0.0013635538061828
0.25049779578806
-0.0014394163446033
0.25065532064636
-0.0015156157526741
0.25082075601132
-0.0015956981552309
0.25099387085498
-0.0016745609254862
0.25117537711275
-0.0017605428069635
0.25136472931989
-0.0018426134243488
0.25156340708675
-0.0019384273201709
0.25177000754951
-0.0020228148331346
0.25198753639475
-0.0021332373610955
0.25221234721817
-0.0022133691763024
-0.0023449311601476
0.25245076919787
0.23494320830963
-4.3699632089096e-05
0.23495531254259
-0.00013029207345164
0.23497537770582
-0.00021662434954792
0.23500342536119
-0.00030265196994768
0.23503947672498
-0.00038847442453874
0.23508355958239
-0.00047410317603011
0.23513568962265
-0.00055943248605994
0.23519586109911
-0.00064433561760791
0.23526402361339
-0.00072850749010752
0.23534006304401
-0.00081146058215516
0.23542377135296
-0.00089246265664651
0.23551487780773
-0.00097106946886028
0.23561307752181
-0.0010471333909194
0.23571813960239
-0.0011214528007685
0.23582991661334
-0.0011948997807393
0.23594844097034
-0.0012691631647697
0.23607379831937
-0.0013447536096961
0.23620622900988
-0.001423134978945
0.23634585338286
-0.0015031781383161
0.23649294816076
-0.0015865110821002
0.23664748143963
-0.0016701489918792
0.23680979190422
-0.0017580085803922
0.23697965570075
-0.0018444246831324
0.23715773738098
-0.0019386244483822
0.2373435098463
-0.002028385851265
0.23753838457622
-0.0021333020116529
0.23774099394613
-0.0022254241649288
0.23795428040786
-0.0023465237852644
0.23817461983697
-0.0024337085693817
-0.0025786894184285
0.2384083781339
0.221756945464
-4.7675259401933e-05
0.22176857785938
-0.00014192441987093
0.22178785877934
-0.00023590522074443
0.22181482915209
-0.00032962229438138
0.22184952789819
-0.0004231731231184
0.22189200318319
-0.00051657841409804
0.22194229253668
-0.0006097217934884
0.22200041144427
-0.0007024544797424
0.22206632934884
-0.00079442535015069
0.22213994999738
-0.00088508118679642
0.22222108094429
-0.00097359356064821
0.22230946382328
-0.0010594523055973
0.2224048040059
-0.0011424735322916
0.22250687774208
-0.0012235264963452
0.22261554606329
-0.0013035680623089
0.2227308466923
-0.0013844637547099
0.22285287603453
-0.0014667829137592
0.2229818768253
-0.001552135731998
0.22311798282683
-0.0016392841029198
0.22326146335042
-0.001729991569089
0.22341230343113
-0.0018209890366458
0.22357081562638
-0.0019165207398975
0.22373680106491
-0.0020104100864603
0.22391086977518
-0.0021126931235648
0.2240925369524
-0.0022100529938563
0.22428312767327
-0.0023238926979592
0.2244813423136
-0.0024236387711448
0.22469002600999
-0.0025552074481808
0.22490562182025
-0.0026493043476395
-0.0028075461073906
0.22513447854356
0.20931072472463
-5.1467994094678e-05
0.20932177280152
-0.0001529724547652
0.20934008877723
-0.00025422115452669
0.20936573260697
-0.00035526608240358
0.20939876144364
-0.00045620191855111
0.20943924481018
-0.00055706173967166
0.20948724358959
-0.00065772053244263
0.20954279652026
-0.00075800737020014
0.20960589586367
-0.00085752465389615
0.20967646703984
-0.0009556523235832
0.20975433860289
-0.0010514650849367
0.20983927071561
-0.0011443843798682
0.20993098665461
-0.0012341894335193
0.21002927687158
-0.0013218166758879
0.21013401900122
-0.0014083101552395
0.21024526181059
-0.0014957065277133
0.21036312059476
-0.0015846416622819
0.2104878446151
-0.0016768597170312
0.2106195909487
-0.0017710304019091
0.21075862479441
-0.0018690253804925
0.2109049621483
-0.0019673263568847
0.2110588906657
-0.0020704492239247
0.21122025582263
-0.0021717752106485
0.21138960923604
-0.0022820465044861
0.21156653403955
-0.0023869777654935
0.21175225529625
-0.0025096139230704
0.21194557544959
-0.0026169588935463
0.21214921377619
-0.0027588457446534
0.21235972695353
-0.0028598174963705
-0.0030312144702638
0.21258339534702
0.19756301118483
-5.5042614941623e-05
0.1975733706697
-0.00016333190374879
0.19759055342369
-0.00027140387256557
0.19761463720221
-0.00037934982498563
0.19764569714591
-0.00048726182657026
0.19768382420284
-0.00059518876092982
0.19772910301355
-0.00070299930770586
0.19778159642034
-0.00081050074152166
0.19784132125478
-0.00091724945312255
0.19790822724101
-0.0010225582745782
0.19798216822377
-0.0011254060327749
0.19806292796051
-0.001225144081714
0.19815025436671
-0.0013215158052175
0.19824395823314
-0.0014155205079055
0.19834394115501
-0.00150829304316
0.19845026801507
-0.0016020333539648
0.19856308054178
-0.0016974541557226
0.19868263840962
-0.0017964175518122
0.19880913177562
-0.0018975237354283
0.19894282552455
-0.002002719097199
0.19908378087197
-0.0021082816727114
0.1992322636731
-0.0022189319937571
0.19938818385878
-0.002327695365674
0.19955203396386
-0.0024458965792486
0.19972349142551
-0.002558435197506
0.19990367307989
-0.0026897955482194
0.20009151862382
-0.0028048044089734
0.20028959871962
-0.0029569258128312
0.20049463451975
-0.0030648532703608
-0.003249368467064
0.20071278854452
0.18647460244804
-5.8367663456562e-05
0.18648418412473
-0.00017291354910193
0.18650008666903
-0.00028730638532641
0.18652240477888
-0.00040166790314567
0.1865512306551
-0.00051608767116077
0.18658667564884
-0.0006306337228638
0.18662884744456
-0.00074517107166197
0.18667783277052
-0.00085948603547259
0.18673367369364
-0.00097309034426495
0.18679634553896
-0.0010852300876839
0.18686573026208
-0.001194790723762
0.18694163887951
-0.0013010526668089
0.18702384928415
-0.001403726177685
0.18711219737051
-0.0015038685619619
0.18720661474605
-0.0016027103866569
0.18730718634895
-0.0017026049248134
0.18741408667062
-0.0018043544457286
0.18752758903904
-0.0019099198887009
0.18764792552227
-0.0020178601876388
0.18777536458489
-0.0021301581290668
0.1879100263083
-0.0022429433659973
0.18805215919441
-0.0023610648501488
0.1882017572622
-0.0024772934044669
0.18835925656422
-0.0026033958527497
0.18852445556146
-0.0027236341670193
0.18869835908701
-0.0028636990465987
0.18888008065126
-0.0029865259468904
0.18907202371196
-0.0031488688481712
0.18927113143001
-0.0032639609644642
-0.0034616321456125
0.18948339513417
0.17600849847105
-6.1417348416053e-05
0.17601723029574
-0.00018164534590687
0.17603173272656
-0.00030180878798017
0.17605211597651
-0.0004220511246739
0.17607848782087
-0.00054245948706082
0.17611097821355
-0.00066312408682756
0.17614971614781
-0.00078390897713379
0.17619481069404
-0.00090458055257895
0.17624632826173
-0.0010246078827576
0.17630426980534
-0.001143171601729
0.17636854695611
-0.001259067844899
0.17643900005613
-0.0013715057368394
0.17651544054056
-0.0014801666321043
0.17659773256506
-0.0015861605561577
0.17668584204601
-0.0016908198373925
0.1767798764616
-0.0017966393100472
0.17688004767101
-0.0019045256250378
0.17698664489145
-0.0020165170791096
0.17709994921325
-0.0021311644798686
0.17722023629707
-0.0022504451836061
0.17734769712744
-0.0023704041677613
0.17748256802677
-0.0024959357213849
0.17762494533802
-0.0026196706884373
0.17777521327086
-0.002753663758977
0.17793331749444
-0.0028817383648905
0.17810015070893
-0.0030305322361232
0.17827503964186
-0.0031614148557781
0.17846020284936
-0.0033340320326595
0.17865287382901
-0.00345663192239
-0.0036675667989504
0.17885880850565
0.16612977687148
-6.417221619687e-05
0.1661376057293
-0.0001894741782586
0.16615061904551
-0.00031482207841436
0.166168940507
-0.00044037256014971
0.16619269132718
-0.00056621028120379
0.16622201749726
-0.00069245023064738
0.166257066675
-0.00081895812858095
0.16629796773541
-0.00094548158643959
0.16634480950359
-0.0010714496243264
0.16639761714453
-0.0011959792157173
0.16645633170483
-0.0013177823781404
0.16652082363199
-0.0014359976365217
0.16659093978471
-0.001550282757216
0.16666657396046
-0.0016617947039144
0.16674772852743
-0.0017719743763149
0.16683453437856
-0.0018834451329023
0.16692724308732
-0.0019972343056633
0.16702616077773
-0.0021154347414266
0.16713162224191
-0.0022366259163952
0.16724391340206
-0.0023627363164802
0.16736330566981
-0.0024897964089822
0.16749002872499
-0.0026226587507383
0.16762429686297
-0.002753938801591
0.16776644832418
-0.0028958151962733
0.16791660028429
-0.0030318903022009
0.16807553393809
-0.0031894658681271
0.16824283202788
-0.003328712924819
0.1684205100297
-0.0035117100148311
0.16860617450464
-0.0036422963788087
-0.0038666559291776
0.16880526365489
0.15680547600761
-6.6619511730818e-05
0.15681236873857
-0.00019636688542064
0.15682383658477
-0.00032628990064333
0.15684001425457
-0.00045655020592656
0.1568610338165
-0.00058722981930861
0.1568870541467
-0.0007184705370556
0.15691823823117
-0.00085014218950772
0.15695473144512
-0.00098197477686127
0.15699664207924
-0.0011133602350812
0.15704401706986
-0.0012433541828436
0.157096825305
-0.0013705905897785
0.1571549664596
-0.0014941387672925
0.15721832262891
-0.0016136389025461
0.15728681749069
-0.0017302895412867
0.15736048958111
-0.0018456464421962
0.15743949260954
-0.0019624481364899
0.15752411734404
-0.0020818590153839
0.15761468682533
-0.0022060041979683
0.15771159076978
-0.0023335298365424
0.15781512812115
-0.0024662736440317
0.15792565598482
-0.0026003242497183
0.15804340399443
-0.0027404067383539
0.15816871567663
-0.0028792504630609
0.15830189164758
-0.0030289911477646
0.15844324082337
-0.0031732394599828
0.15859343332897
-0.0033396583570442
0.15875234844383
-0.0034876280242742
0.15892177747645
-0.0036811390332316
0.15909979847806
-0.0038203173670693
-0.0040583003279605
0.15929144289155
0.14800448465128
-6.8753211743411e-05
0.1480104279183
-0.00020231012935951
0.14802032644668
-0.00033618840607584
0.14803432334432
-0.00047054708108957
0.14805255862615
-0.00060546507939854
0.14807520049368
-0.00074111238348972
0.14810242336331
-0.00087736503886351
0.14813438527464
-0.0010139366685125
0.14817121031146
-0.00115018525289
0.14821296409967
-0.0012851079523332
0.14825964061586
-0.0014172670875551
0.14831116703643
-0.0015456651693295
0.14836745857543
-0.0016699304229546
0.14842846744206
-0.0017912983889531
0.14849426555097
-0.001911444531961
0.14856502804566
-0.002033210611705
0.1486410805588
-0.0021579115090721
0.14872276308927
-0.0022876867090075
0.14881051636132
-0.002421283089652
0.1489046567563
-0.0025604140206784
0.1490056244822
-0.0027012919583724
0.14911365976561
-0.0028484420057771
0.1492292354264
-0.0029948261094921
0.14935263157617
-0.0031523872849344
0.14948435985228
-0.0033049677253909
0.14962499032008
-0.0034802888159773
0.14977472842607
-0.0036373661230293
0.14993511159931
-0.0038415222005354
0.1501047816363
-0.0039899873986447
-0.0042418034740673
0.15028828478895
0.13969743771713
-7.0573646777133e-05
0.13970243717151
-0.00020730955918103
0.13971077344827
-0.00034452465871926
0.13972259532248
-0.00048236893251118
0.13973804777487
-0.00062091751076115
0.13975730475021
-0.00076036933950495
0.13978054810819
-0.00090060837933214
0.13980794440057
-0.0010413329448983
0.139839629037
-0.0011818698747806
0.13987568256531
-0.0013211614670596
0.13991612041495
-0.0014577049243875
0.13996089519527
-0.0015904399370695
0.14000995184972
-0.0017189870649591
0.14006326945446
-0.0018446159809816
0.14012094724771
-0.0019691223123261
0.14018318017399
-0.0020954435247818
0.14025031971513
-0.0022250510369826
0.14032272431935
-0.0023600913000746
0.14040087388033
-0.0024994326380109
0.14048511252179
-0.0026446526503222
0.14057594687412
-0.0027921263002029
0.14067365221114
-0.0029461473339671
0.14077880347176
-0.0030999773633885
0.14089170135068
-0.0032652851594936
0.14101303215043
-0.0034262985233402
0.14114332064552
-0.00361057731177
0.14128311176227
-0.0037771572426318
0.14143367647691
-0.0039920869195159
0.1415942937577
-0.0041506046838775
-0.0044163155835232
0.14176880586358
0.13185661708957
-7.2085979496183e-05
0.13186069460909
-0.00021138704721166
0.13186750404242
-0.00035133406078575
0.13187719642861
-0.00049206128976407
0.13188991775254
-0.00063363880892557
0.13190584383804
-0.00077629540244255
0.13192516037724
-0.00091992489915135
0.13194803876479
-0.0010642113158055
0.13197462152604
-0.0012084526218329
0.13200500004128
-0.001351539969846
0.1320392068252
-0.0014919116971992
0.13207721700935
-0.0016284501107538
0.13211900076584
-0.0017607708113462
0.132164561761
-0.0018901769659428
0.13221401855584
-0.0020185790968462
0.1322675841193
-0.0021490090776486
0.13232562243915
-0.0022830893462462
0.13238851457364
-0.0024229834241329
0.13245675865531
-0.0025676767099189
0.13253074585251
-0.0027186398387992
0.13261101100889
-0.0028723914495386
0.1326979175196
-0.0030330538397963
0.13279206518762
-0.003194125029273
0.13289388288827
-0.0033671028611384
0.1330040883351
-0.0035365039745495
0.13312332413433
-0.0037298131187909
0.13325235428645
-0.0039061874054218
0.13339236096505
-0.0041320936105763
0.13354338057892
-0.0043016243099364
-0.004580901717016
0.1337079667012
0.12445585919698
-7.329879688723e-05
0.12445904778246
-0.0002145755836735
0.12446438838907
-0.000356674617048
0.12447203036895
-0.00049970322206783
0.12448211679412
-0.00064372519105793
0.1244948214632
-0.00078900003328571
0.12451032924012
-0.000935432642499
0.12452881111581
-0.0010826931619283
0.12455041230994
-0.0012300537898146
0.12457523183486
-0.0013763594711261
0.1246033171566
-0.0015199969971589
0.12463466378461
-0.0016597967180197
0.12466926346599
-0.0017953704726088
0.12470713952071
-0.0019280530006303
0.1247484202135
-0.0020598597696276
0.12479333032692
-0.0021939191709338
0.12484223230828
-0.0023319913076204
0.12489553114627
-0.0024762822424942
0.12495372197174
-0.0026258675167025
0.12501726492797
-0.0027821827778151
0.12508667112242
-0.0029417976289835
0.1251624683166
-0.0031088510218664
0.12524514525831
-0.0032768019624275
0.12533548516475
-0.0034574427631405
0.12543389271272
-0.0036349115225238
0.12554160643131
-0.0038375268418939
0.12565885339382
-0.0040234343763014
0.12578764809597
-0.0042608883233674
0.12592813306316
-0.0044421092873481
-0.0047352918576939
0.12608252319578
0.11747047175719
-7.4226709122472e-05
0.11747281492029
-0.00021691866502722
0.11747676317634
-0.00036062278783657
0.11748245722116
-0.00050539718424333
0.11749003558491
-0.00065130347749168
0.11749967030833
-0.00079863468536013
0.11751154284337
-0.00094730511197381
0.11752581733923
-0.0010969675971676
0.11754263398946
-0.0012468703835004
0.11756209325592
-0.0013958186840696
0.11758425577474
-0.0015421594646384
0.11760913598513
-0.0016846768784143
0.11763674898023
-0.0018229834185372
0.11766713240571
-0.0019584363773094
0.11770041925035
-0.0020931465656894
0.11773683152378
-0.002230331395978
0.11777672227219
-0.0023718820080629
0.11782050441059
-0.0025200643337655
0.11786866558359
-0.0026740286439797
0.11792172845943
-0.0028352456101749
0.11798016359632
-0.0030002327254078
0.11804469260391
-0.0031733799930042
0.11811558018157
-0.0033476895082554
0.11819419803575
-0.0035360605908952
0.11828017785624
-0.0037208913221825
0.11837633830929
-0.003933687280016
0.11848054309713
-0.0041276391541927
0.11859845773584
-0.0043788029552699
0.11872480450721
-0.0045684560515189
-0.0048824789193558
0.11887199158139
0.11087715598746
-7.4897692392905e-05
0.11087872054488
-0.00021848309532636
0.11088137950078
-0.00036328161138519
0.11088525330458
-0.00050927085825872
0.1108904755923
-0.00065652564124853
0.11089721689423
-0.00080537586990824
0.11090565384987
-0.00095574195648153
0.11091594370826
-0.001107257349664
0.1109282208677
-0.0012591474412666
0.1109425866109
-0.0014101843286298
0.11095911472766
-0.0015586874850083
0.11097783169053
-0.00170339374627
0.11099877049656
-0.0018439221305834
0.11102196945343
-0.0019816352407451
0.11104756463446
-0.0021187416539004
0.11107575791492
-0.002258524584145
0.11110690365516
-0.0024030276570558
0.11114139240233
-0.0025545529910499
0.11117973957296
-0.0027123757271312
0.11122245969522
-0.0028779656481586
0.11127007421232
-0.0030478471627953
0.1113233371172
-0.0032266428235469
0.11138248499178
-0.0034068373149081
0.11144915089426
-0.0036027264321203
0.1115224336801
-0.0037941740540297
0.11160675400944
-0.0040180075626273
0.11169713072457
-0.0042180158292425
0.11180566049098
-0.004487332685608
0.11191334660848
-0.0046761421328612
-0.0050249384091804
0.11205580614486
0.10465391616881
-7.5347741070491e-05
0.1046548056127
-0.00021937236383758
0.10465629975537
-0.00036477557538745
0.10465850789435
-0.00051147882183501
0.10466156089325
-0.00065957847065374
0.10466561597331
-0.00080943078691269
0.10467083740058
-0.00096096322656748
0.1046773716831
-0.0011137914797926
0.10468535600724
-0.0012671316166504
0.10469490485202
-0.0014197330272939
0.10470612401675
-0.0015699065054508
0.10471906114949
-0.0017163307360619
0.1047337494949
-0.0018586103339733
0.10475020653929
-0.0019980921440276
0.10476855599757
-0.0021370909718999
0.10478894631345
-0.0022789147609726
0.10481173636081
-0.0024258175668592
0.10483726180501
-0.0025800783002427
0.10486613724373
-0.0027412510342746
0.10489876778339
-0.0029105960614119
0.10493595515986
-0.0030850344191756
0.10497804666288
-0.0032687342144618
0.10502601444457
-0.0034548049927562
0.10508018466366
-0.0036568965562536
0.10514156781937
-0.0038555571235412
0.10521155554228
-0.0040879952087364
0.10528980672586
-0.0042962669439919
0.10538399027082
-0.0045815161669366
0.1054826734346
-0.0047748252325451
-0.0051577490096073
0.1056154841171
0.098779926778453
-7.5556062434103e-05
0.098780248056957
-0.00021969343559258
0.098780656357271
-0.00036518366775879
0.098781360707133
-0.00051218296734205
0.098782489479586
-0.00066070704403483
0.098784154084407
-0.00081109519795546
0.098786529258357
-0.00096333821128087
0.098789718618857
-0.0011169806543673
0.0987938040114
-0.0012712168255797
0.098798870275188
-0.0014247991088213
0.09880503603677
-0.0015760720857102
0.098812416404797
-0.0017237109232617
0.098821125484826
-0.0018673192337913
0.098831195263647
-0.0020081617431344
0.098842723532863
-0.0021486190623943
0.098855780625611
-0.0022919716761705
0.098870685971709
-0.0024407227376533
0.098887682900025
-0.002597075056426
0.098907460250122
-0.002761028217524
0.09893028767684
-0.002933423328395
0.098957347798694
-0.0031120943909278
0.098988423274797
-0.0032998095512512
0.099025781603022
-0.0034921631934391
0.099067648479336
-0.0036987633164417
0.099119162800313
-0.0039070713399886
0.099174377441004
-0.0041432097564272
0.099244884127462
-0.0043667735476069
0.099316384345658
-0.0046530163070538
0.09941180032231
-0.0048702411262382
0.099562416668392
-0.0053083652510901
0.39471064812335
0.0046075823079143
0.39026716490458
0.0044434832808833
0.38599220647051
0.0042749584960803
0.381890023886
0.0041021826472254
0.37796467581536
0.0039253481342398
0.37422004295023
0.0037446329300145
0.37065983678478
0.0035602062314758
0.3672876044582
0.0033722323939839
0.3641067320271
0.003180872499601
0.36112044638094
0.0029862857159644
0.35833181699648
0.0027886294551983
0.35574375645724
0.0025880606111068
0.35335902127264
0.0023847352571677
0.35118021151394
0.0021788098321602
0.34920977062066
0.0019704409671866
0.34744998362228
0.0017597870729184
0.34590297437173
0.0015470093252351
0.34457070098935
0.0013322734574568
0.34345494889571
0.0011157521686003
0.34255732264645
0.00089762632440943
0.34187923214894
0.0006780905723476
0.3414218753544
0.00045735686943029
0.34118619098586
0.00023568444301183
0.34117244324323
1.3747817105706e-05
0.34138220008326
-0.00020975676599836
0.34181522297384
-0.00043302281652257
0.34247150913504
-0.00065628608756882
0.34335083041775
-0.00087932120901461
0.34445268971101
-0.0011018592199822
0.3457763256761
-0.0013236358917526
0.34732072184422
-0.0015443960952469