/*--------------------------------*- C++ -*----------------------------------*\
| =========                 |                                                 |
| \\      /  F ield         | OpenFOAM: The Open Source CFD Toolbox           |
|  \\    /   O peration     | Version:  2112                                  |
|   \\  /    A nd           | Website:  www.openfoam.com                      |
|    \\/     M anipulation  |                                                 |
\*---------------------------------------------------------------------------*/
FoamFile
{
    version     2.0;
    format      ascii;
    arch        "LSB;label=32;scalar=64";
    class       volVectorField;
    location    "11.9";
    object      U;
}
// * * * * * * * * * * * * * * * * * * * * * * * * * * * * * * * * * * * * * //

dimensions      [0 1 -1 0 0 0 0];

internalField   nonuniform List<vector> 
22000
(
(1.0000009666815 -2.4903680190995e-05 0)
(1.0000257745732 -7.4641533220007e-05 0)
(1.0000732560395 -0.0001239556415838 0)
(1.0001444824398 -0.0001730792489976 0)
(1.0002399117271 -0.00022202414349633 0)
(1.0003594392511 -0.00027064464811509 0)
(1.0005027027078 -0.00031881360089472 0)
(1.0006693395494 -0.0003665065397072 0)
(1.0008590703741 -0.00041376121975129 0)
(1.0010717053706 -0.00046063344548686 0)
(1.0013070835688 -0.00050710851476352 0)
(1.0015650417337 -0.00055314341520283 0)
(1.001845342262 -0.00059860620718522 0)
(1.0021477135818 -0.00064343068243819 0)
(1.0024717856016 -0.00068744887372064 0)
(1.0028172089798 -0.00073068585045902 0)
(1.0031835088659 -0.00077292015357253 0)
(1.0035703165075 -0.00081433820237677 0)
(1.0039770414556 -0.0008545186392104 0)
(1.0044033467977 -0.00089395444771267 0)
(1.0048484538894 -0.00093173091436929 0)
(1.0053121339947 -0.00096904721268176 0)
(1.0057932736043 -0.0010038796899573 0)
(1.0062919291585 -0.0010390836665229 0)
(1.0068063765216 -0.0010701198007397 0)
(1.0073373477431 -0.0011036563801395 0)
(1.0078819496749 -0.0011293951028415 0)
(1.0084424165492 -0.0011627396370643 0)
(1.0090135674703 -0.0011801733203338 0)
(1.0096008169719 -0.0012171348185081 0)
(1.0000004395248 -7.3334765509217e-05 0)
(1.0000252931611 -0.00021994507667409 0)
(1.000073155775 -0.00036548129470906 0)
(1.0001450326631 -0.00051058617173861 0)
(1.0002414280549 -0.00065528322812764 0)
(1.0003623250516 -0.00079913635704456 0)
(1.0005074354147 -0.00094175262637189 0)
(1.0006764445254 -0.0010830357001655 0)
(1.0008690833838 -0.0012230753514089 0)
(1.0010851722826 -0.0013620217324139 0)
(1.0013245357675 -0.0014998279947803 0)
(1.0015870303403 -0.0016363723130739 0)
(1.0018724000512 -0.001771277743431 0)
(1.0021804325649 -0.001904357595081 0)
(1.0025107212716 -0.0020351232326937 0)
(1.0028630325179 -0.0021636399809344 0)
(1.0032367777108 -0.0022892509194086 0)
(1.003631801684 -0.0024124811115391 0)
(1.0040472244255 -0.0025320945400155 0)
(1.0044831477863 -0.002649507060294 0)
(1.0049381445411 -0.0027620638239725 0)
(1.0054129357317 -0.0028732221574112 0)
(1.0059050001735 -0.0029771329384851 0)
(1.0064164585927 -0.0030820193435523 0)
(1.0069425309653 -0.0031748038586545 0)
(1.0074884632127 -0.0032746465856039 0)
(1.008044679142 -0.0033519948176934 0)
(1.0086233580711 -0.0034509676254114 0)
(1.0092047122954 -0.0035043444771191 0)
(1.0098159982888 -0.0036132746955509 0)
(1.0000004781956 -0.00011992184151968 0)
(1.0000263461684 -0.00035976891861819 0)
(1.0000760541989 -0.00059807152344909 0)
(1.0001505417913 -0.00083585312740796 0)
(1.0002502990097 -0.0010732040038688 0)
(1.0003753688711 -0.0013094467336381 0)
(1.0005255359069 -0.0015439080241899 0)
(1.0007005484167 -0.0017763587943502 0)
(1.0009001564088 -0.0020068681347258 0)
(1.0011241962366 -0.0022356307618105 0)
(1.0013724644749 -0.0024625556476085 0)
(1.0016448417677 -0.0026874763232116 0)
(1.0019410409254 -0.0029098233277367 0)
(1.0022609460296 -0.0031293508935355 0)
(1.0026040993181 -0.0033452721862032 0)
(1.002970460847 -0.0035577071817721 0)
(1.0033592650333 -0.0037655158727712 0)
(1.0037707085144 -0.0039695595258044 0)
(1.0042034352711 -0.0041677046656767 0)
(1.004658274013 -0.0043623497714537 0)
(1.0051327070133 -0.004548974906067 0)
(1.0056290593493 -0.0047334792883886 0)
(1.0061423965946 -0.0049059141306419 0)
(1.0066784040931 -0.0050802925814006 0)
(1.0072269379012 -0.0052343539074502 0)
(1.0078012292754 -0.0054007227361407 0)
(1.008379655418 -0.0055291017799911 0)
(1.0089924578029 -0.0056945741436131 0)
(1.0095927851168 -0.0057827828752999 0)
(1.0102487560722 -0.0059657584281972 0)
(1.0000005105422 -0.00016571002309742 0)
(1.0000275113414 -0.00049703640992239 0)
(1.0000793926855 -0.00082633532971943 0)
(1.0001571084872 -0.0011550405076919 0)
(1.0002611753792 -0.0014834530932006 0)
(1.0003917129522 -0.0018107655644199 0)
(1.000548586996 -0.0021360216700642 0)
(1.0007316223061 -0.0024587781023033 0)
(1.0009405933107 -0.0027789796082856 0)
(1.001175361898 -0.003096795784874 0)
(1.0014356886664 -0.0034120761204067 0)
(1.0017214922973 -0.0037246646741186 0)
(1.0020324438024 -0.0040338785435308 0)
(1.0023685684198 -0.0043395089726031 0)
(1.0027293392079 -0.0046405017699104 0)
(1.0031149990467 -0.0049370586303201 0)
(1.0035245346964 -0.0052274765430977 0)
(1.0039586540272 -0.0055129592589505 0)
(1.0044153249884 -0.0057903328943899 0)
(1.0048964260189 -0.0060630894691258 0)
(1.0053978817947 -0.0063246186963052 0)
(1.0059243251492 -0.006583583602169 0)
(1.0064673682212 -0.0068254480054595 0)
(1.0070378151951 -0.0070707453500818 0)
(1.0076178421365 -0.0072869095854371 0)
(1.0082321393562 -0.0075216866059944 0)
(1.0088418419553 -0.0077014900531399 0)
(1.0095030976766 -0.0079361368276238 0)
(1.0101303546579 -0.0080583689212147 0)
(1.010850245032 -0.0083196474846795 0)
(1.0000005495194 -0.00021091588830426 0)
(1.0000288343261 -0.00063244059834868 0)
(1.0000831905708 -0.0010514927324673 0)
(1.0001646003789 -0.0014699214877394 0)
(1.0002736266199 -0.0018884025035458 0)
(1.0004104965008 -0.0023061307564546 0)
(1.0005751852694 -0.0027218646109741 0)
(1.0007676190493 -0.0031348510557076 0)
(1.0009876069677 -0.0035447894124459 0)
(1.0012350494373 -0.0039517443551197 0)
(1.0015096680393 -0.004355489197139 0)
(1.0018114391614 -0.004755945544365 0)
(1.0021399882659 -0.0051524094417307 0)
(1.0024955320275 -0.0055448241989217 0)
(1.0028774629599 -0.0059319013188104 0)
(1.0032864000162 -0.0063139599813062 0)
(1.0037210200789 -0.0066886321806081 0)
(1.0041827048556 -0.0070574806996499 0)
(1.0046685602554 -0.0074161050603462 0)
(1.0051818366725 -0.0077692437870634 0)
(1.0057164589472 -0.0081078911266914 0)
(1.0062800575335 -0.0084439068817718 0)
(1.0068597983789 -0.0087575040022189 0)
(1.0074731125453 -0.0090767229884754 0)
(1.0080922786576 -0.0093571738547916 0)
(1.0087567872732 -0.0096639662493136 0)
(1.0094055554882 -0.009896794748792 0)
(1.0101281221847 -0.010205312245414 0)
(1.0107891006462 -0.010361621991602 0)
(1.0115903640084 -0.01070815704356 0)
(1.0000005927893 -0.00025563026954251 0)
(1.0000302348407 -0.00076625748052614 0)
(1.0000872098824 -0.0012740379427316 0)
(1.0001725292847 -0.0017812451901841 0)
(1.000286814548 -0.0022891097385226 0)
(1.0004304315623 -0.0027969733358365 0)
(1.0006034982852 -0.003303303062597 0)
(1.0008060731933 -0.0038069277396726 0)
(1.0010380160087 -0.0043071649698491 0)
(1.0012992825261 -0.0048038857268129 0)
(1.0015895559441 -0.0052967692678018 0)
(1.0019088933558 -0.0057858922813041 0)
(1.0022568760795 -0.006270634711651 0)
(1.0026339668151 -0.0067512245705749 0)
(1.00303947334 -0.0072261760641016 0)
(1.0034744881021 -0.0076959705736508 0)
(1.0039373260262 -0.0081574568202472 0)
(1.0044302077614 -0.0086125829317193 0)
(1.0049492069044 -0.0090555019658814 0)
(1.0054992646454 -0.0094923874605131 0)
(1.0060718906038 -0.0099114701036012 0)
(1.006678383914 -0.010328330744276 0)
(1.0073005237545 -0.010717128509588 0)
(1.0079638150521 -0.011114604837783 0)
(1.0086285357764 -0.011462709282961 0)
(1.0093521602247 -0.011846626458683 0)
(1.0100466685049 -0.012135185999205 0)
(1.0108420860927 -0.012524032684227 0)
(1.0115426878994 -0.01271528585372 0)
(1.01244136044 -0.013156237732021 0)
(1.0000006383199 -0.00029980670924084 0)
(1.0000316140671 -0.00089834468187422 0)
(1.000091168938 -0.0014937464119799 0)
(1.0001803432168 -0.002088722023406 0)
(1.0002998275713 -0.0026852539159364 0)
(1.0004501566815 -0.0032829880530786 0)
(1.0006316251615 -0.0038800953403446 0)
(1.0008444569593 -0.0044748713812064 0)
(1.0010885814013 -0.0050661074232554 0)
(1.0013640296904 -0.0056533881878145 0)
(1.0016704514417 -0.0062362824559704 0)
(1.0020080111004 -0.0068151092753909 0)
(1.0023762524835 -0.007389448121412 0)
(1.0027759423973 -0.0079599592241666 0)
(1.0032063066131 -0.0085250011603323 0)
(1.0036690115226 -0.0090852720709408 0)
(1.0041619688331 -0.0096367092341041 0)
(1.004688404472 -0.010181683975848 0)
(1.0052432078891 -0.010712658739739 0)
(1.0058333239089 -0.011237461904308 0)
(1.006447465627 -0.011741142850882 0)
(1.0071012443042 -0.012243602722382 0)
(1.00777018038 -0.012712030861233 0)
(1.0084892242628 -0.013193230397487 0)
(1.0092046937893 -0.013613397098429 0)
(1.0099950375163 -0.014080873236269 0)
(1.0107409123944 -0.014428905475718 0)
(1.0116194504263 -0.01490611463804 0)
(1.0123648684148 -0.01513403117786 0)
(1.0133756760101 -0.015680519469677 0)
(1.0000006837185 -0.00034327509749312 0)
(1.0000328759946 -0.0010281912597298 0)
(1.0000947924881 -0.0017097764024875 0)
(1.0001875002159 -0.0023911914940095 0)
(1.0003117686402 -0.003075380182421 0)
(1.0004683303516 -0.0037624614778959 0)
(1.0006576906526 -0.0044503089925865 0)
(1.0008802728059 -0.0051365686207004 0)
(1.0011360968357 -0.0058193575478458 0)
(1.0014252917797 -0.0064978813603064 0)
(1.0017474823492 -0.0071715847236219 0)
(1.0021029699791 -0.0078411245177971 0)
(1.002491272631 -0.008506403849074 0)
(1.0029135216417 -0.0091686745933651 0)
(1.0033688704819 -0.0098261863238514 0)
(1.0038596611652 -0.010479918615338 0)
(1.0043833730407 -0.011124764797573 0)
(1.0049444020476 -0.011763569948042 0)
(1.0055363242655 -0.012386845989244 0)
(1.0061683896657 -0.013004323466823 0)
(1.0068261766612 -0.013597415390935 0)
(1.0075302149331 -0.014191003416208 0)
(1.0082489821964 -0.014744303239221 0)
(1.0090281410368 -0.015315672549421 0)
(1.009798283883 -0.015813259621705 0)
(1.0106615679396 -0.016371937729347 0)
(1.0114633659509 -0.016784209806089 0)
(1.0124339228173 -0.017359297024536 0)
(1.0132286677653 -0.017626574351377 0)
(1.0143648666944 -0.018291578130854 0)
(1.0000007272415 -0.00038577294141002 0)
(1.0000339292934 -0.0011550132985325 0)
(1.0000978176741 -0.0019208312555295 0)
(1.0001934818244 -0.0026868534689229 0)
(1.0003217781255 -0.0034572006198222 0)
(1.0004836648781 -0.0042326410474382 0)
(1.0006798912242 -0.0050107549071165 0)
(1.0009111131246 -0.0057884244944259 0)
(1.0011774634751 -0.0065629469215154 0)
(1.0014791928191 -0.0073330584520594 0)
(1.0018159128737 -0.0080980699751705 0)
(1.0021880934589 -0.0088590779804262 0)
(1.0025952428478 -0.0096164396338947 0)
(1.0030389176887 -0.010372166426165 0)
(1.0035182156493 -0.011124451139084 0)
(1.0040362542341 -0.011874629082921 0)
(1.0045900646719 -0.012616419223774 0)
(1.0051853715035 -0.013353203525834 0)
(1.0058143353749 -0.01407327830302 0)
(1.006488793558 -0.014788545466182 0)
(1.007190907227 -0.01547630523433 0)
(1.0079466742477 -0.016167124368468 0)
(1.0087168633707 -0.016811184415968 0)
(1.0095589757587 -0.017479981698528 0)
(1.0103863609505 -0.018061194331051 0)
(1.011327281324 -0.018719788086196 0)
(1.0121884159624 -0.019202079428999 0)
(1.0132583364888 -0.019885917994584 0)
(1.014106207315 -0.020196352272404 0)
(1.0153793382204 -0.020994535580659 0)
(1.0000007667687 -0.00042697717376202 0)
(1.000034690119 -0.0012778477830411 0)
(1.0001000028406 -0.0021253146486364 0)
(1.0001978107279 -0.0029734838392488 0)
(1.0003290639499 -0.003827869015341 0)
(1.0004949716431 -0.0046900671562224 0)
(1.0006965577537 -0.0055573744167506 0)
(1.0009347421667 -0.0064258016480351 0)
(1.0012097928326 -0.0072916861870398 0)
(1.0015221051567 -0.0081532099732361 0)
(1.0018712923761 -0.0090095458048251 0)
(1.0022580238823 -0.0098623352707807 0)
(1.0026818185602 -0.010712524866569 0)
(1.0031447163135 -0.011563057672488 0)
(1.0036457826505 -0.012412129424211 0)
(1.0041890035707 -0.013261512167457 0)
(1.0047709624159 -0.014103631452091 0)
(1.0053988571286 -0.014942477009368 0)
(1.0060633646417 -0.015763875619237 0)
(1.0067791605107 -0.016582178574524 0)
(1.007524774358 -0.017370099731399 0)
(1.0083321463123 -0.018164614874257 0)
(1.0091538161081 -0.018905794863089 0)
(1.0100600596547 -0.019679898975098 0)
(1.0109457925907 -0.020351672433426 0)
(1.0119673446607 -0.021119797047407 0)
(1.0128899776345 -0.02167888302959 0)
(1.0140648308975 -0.022483544087391 0)
(1.0149688546652 -0.022842146628019 0)
(1.0163884164182 -0.023789631851601 0)
(1.0000008005761 -0.00046653266433377 0)
(1.0000350845675 -0.0013956382468338 0)
(1.000101135534 -0.0023214730301209 0)
(1.0002000682393 -0.0032486333717953 0)
(1.0003329317464 -0.0041842357837468 0)
(1.0005012068399 -0.0051308832175266 0)
(1.0007062194782 -0.0060856031673759 0)
(1.0009491801278 -0.0070434357418595 0)
(1.0012305134323 -0.0079996296326421 0)
(1.0015507802119 -0.008951734021935 0)
(1.0019096128962 -0.0098987867255864 0)
(1.0023079074738 -0.010843079331434 0)
(1.0027452196626 -0.011786288291857 0)
(1.0032241207073 -0.012732456311895 0)
(1.00374367958 -0.013679855726009 0)
(1.0043088244883 -0.014630772525162 0)
(1.0049157191328 -0.01557625073163 0)
(1.0055731440618 -0.016520945218327 0)
(1.006270282128 -0.017448009050259 0)
(1.0070248323896 -0.018374486619235 0)
(1.007811584939 -0.019268093896099 0)
(1.0086687707052 -0.0201728945875 0)
(1.0095403797607 -0.021017835072686 0)
(1.0105101408613 -0.021905502363002 0)
(1.0114537558126 -0.022675368675629 0)
(1.0125570182274 -0.023563255049382 0)
(1.0135419358851 -0.024206914365487 0)
(1.0148252688321 -0.025145392104394 0)
(1.0157876377863 -0.025558564218656 0)
(1.0173608549252 -0.026672822224718 0)
(1.0000008270204 -0.00050408032606279 0)
(1.0000350513157 -0.0015073159353189 0)
(1.0001010389686 -0.0025075273875988 0)
(1.000199907588 -0.0035098092699948 0)
(1.0003328089181 -0.0045230796068345 0)
(1.000501509311 -0.0055511180380473 0)
(1.0007076588919 -0.0065907043628372 0)
(1.000952777489 -0.0076358187680212 0)
(1.0012374680279 -0.0086805069221911 0)
(1.0015624699225 -0.0097216135348034 0)
(1.0019274590695 -0.010758054358447 0)
(1.0023335721676 -0.011792869186028 0)
(1.0027804427453 -0.01282861343453 0)
(1.00327119335 -0.013870581307561 0)
(1.0038049656926 -0.014917221640249 0)
(1.0043876454957 -0.015971387362522 0)
(1.0050150851818 -0.017022717627157 0)
(1.0056976383318 -0.018076530209881 0)
(1.0064231539203 -0.019113229681968 0)
(1.0072123169991 -0.02015265023702 0)
(1.0080363725812 -0.02115733187762 0)
(1.0089398286044 -0.022178829315637 0)
(1.009858282357 -0.02313432277106 0)
(1.0108889796877 -0.024143834158803 0)
(1.0118885252437 -0.025019864337944 0)
(1.0130722392208 -0.026037880028485 0)
(1.014118973767 -0.026774924622067 0)
(1.0155115685002 -0.027860504703432 0)
(1.0165334378056 -0.02833601818109 0)
(1.018265049486 -0.029635529886393 0)
(1.0000008452411 -0.00053928097219474 0)
(1.0000345495452 -0.0016118755213992 0)
(1.0000995879915 -0.0026817992122425 0)
(1.0001970758571 -0.0037546474768699 0)
(1.0003282717246 -0.0048413234344665 0)
(1.0004952350434 -0.0059469451169589 0)
(1.0006999565037 -0.0070680712646395 0)
(1.0009442745835 -0.0081975457637829 0)
(1.0012289912322 -0.0093281131919403 0)
(1.0015550269503 -0.010455850017921 0)
(1.001922133124 -0.011579571547295 0)
(1.00233168097 -0.012703154356091 0)
(1.0027834450873 -0.013830188078317 0)
(1.0032810729679 -0.014967348184402 0)
(1.0038239052255 -0.01611338993945 0)
(1.0044186975826 -0.017271750300376 0)
(1.0050612447175 -0.018430731119733 0)
(1.0057632275758 -0.019596199095649 0)
(1.0065116835452 -0.020745982116369 0)
(1.0073296897825 -0.021902434325574 0)
(1.0081859843312 -0.023023366269264 0)
(1.0091301263186 -0.024167353077536 0)
(1.0100912006816 -0.02524036622735 0)
(1.0111776965877 -0.026379502813317 0)
(1.0122305819355 -0.027370526281734 0)
(1.0134897470832 -0.028528050692818 0)
(1.0145994228641 -0.029370377016338 0)
(1.0160940563584 -0.0306118345533 0)
(1.0171847027953 -0.031166713513224 0)
(1.0190686289791 -0.032664906630871 0)
(1.0000008539541 -0.00057183124834909 0)
(1.0000335547442 -0.0017084215077919 0)
(1.0000967156371 -0.0028427924880876 0)
(1.0001914359896 -0.0039810360639927 0)
(1.0003190793872 -0.0051362026265012 0)
(1.0004820011089 -0.0063148972333518 0)
(1.0006825410787 -0.0075134872726027 0)
(1.00092286107 -0.0087236192767068 0)
(1.0012039759416 -0.0099366536499262 0)
(1.0015269887685 -0.011147849402208 0)
(1.0018917493457 -0.012355943586587 0)
(1.0022998583039 -0.013565737964865 0)
(1.002751279182 -0.014781997373152 0)
(1.0032501634151 -0.016012907126415 0)
(1.0037961483242 -0.017257651087641 0)
(1.0043967934056 -0.018520286842596 0)
(1.0050480364007 -0.019787839791543 0)
(1.0057626950938 -0.021066678563456 0)
(1.0065274452284 -0.022332162733583 0)
(1.0073671959172 -0.023609029101625 0)
(1.0082493080764 -0.024850751510646 0)
(1.009226763207 -0.026122304063218 0)
(1.0102250318399 -0.02731980325326 0)
(1.0113595817223 -0.028595181260818 0)
(1.0124625251677 -0.029711191528006 0)
(1.0137887472213 -0.031016143189096 0)
(1.0149618374459 -0.031977166029749 0)
(1.0165486047382 -0.033383023604987 0)
(1.0177151781263 -0.034035866468076 0)
(1.0197440193629 -0.035745420502698 0)
(1.0000008526122 -0.00060147655011158 0)
(1.0000320606364 -0.0017962025281286 0)
(1.0000924036455 -0.002989250488925 0)
(1.0001829482837 -0.0041871976694053 0)
(1.0003051556168 -0.0054053778572669 0)
(1.0004616731216 -0.006652013773787 0)
(1.0006551892731 -0.0079233120851625 0)
(1.0008881884286 -0.0092096753907221 0)
(1.0011619011048 -0.01050101256827 0)
(1.0014776147788 -0.01179172937794 0)
(1.0018352871837 -0.01308050690814 0)
(1.0022367530668 -0.014373159368706 0)
(1.0026821821385 -0.01567574831514 0)
(1.0031762341345 -0.016998100026669 0)
(1.0037188759559 -0.018339925709357 0)
(1.0043184750175 -0.019705977522369 0)
(1.0049711753427 -0.021082032907347 0)
(1.0056909323782 -0.022475012321557 0)
(1.0064641733842 -0.023857802734943 0)
(1.0073176240107 -0.025257654636891 0)
(1.0082174641727 -0.026623642866919 0)
(1.0092200171995 -0.028027421711594 0)
(1.0102475086035 -0.029355046370751 0)
(1.0114221059976 -0.030773708848138 0)
(1.0125677860825 -0.032022770978649 0)
(1.0139537869343 -0.033484881941039 0)
(1.0151841830669 -0.034575035551584 0)
(1.0168573326524 -0.036158282770029 0)
(1.0180956418223 -0.036921300415296 0)
(1.0202649095047 -0.03885916405212 0)
(1.000000841214 -0.00062802275964875 0)
(1.0000300767888 -0.0018746487954299 0)
(1.0000866788607 -0.0031202152658762 0)
(1.0001716631006 -0.0043717676245298 0)
(1.0002865748506 -0.0056470316204318 0)
(1.0004343430488 -0.0069559576203635 0)
(1.0006179959072 -0.0082946225927865 0)
(1.0008403331557 -0.0096521522638472 0)
(1.0011027968294 -0.011016953488069 0)
(1.0014068556515 -0.012382553189173 0)
(1.0017525755161 -0.013747600517107 0)
(1.0021420254331 -0.015118998941283 0)
(1.0025755864493 -0.016504215741777 0)
(1.0030584271875 -0.017914834372279 0)
(1.0035908546338 -0.019351189379408 0)
(1.0041820475854 -0.020818802390947 0)
(1.0048283878583 -0.022302250111415 0)
(1.0055449802433 -0.023809063530226 0)
(1.0063180749398 -0.025309693996569 0)
(1.0071762284539 -0.026834013249578 0)
(1.0080845709813 -0.028326729906911 0)
(1.0091027687232 -0.029866356336027 0)
(1.0101500200962 -0.031328860629468 0)
(1.0113551425482 -0.032896966635765 0)
(1.0125343458647 -0.034286420783308 0)
(1.0139710379299 -0.03591481694772 0)
(1.0152504354956 -0.03714410633113 0)
(1.0170020492865 -0.038917318533389 0)
(1.0183057309573 -0.039802987204984 0)
(1.0206081355615 -0.041985195533661 0)
(1.000000819648 -0.00065134233793535 0)
(1.0000276277859 -0.0019433898983112 0)
(1.0000796103218 -0.0032350594768994 0)
(1.0001577123131 -0.0045338407893184 0)
(1.0002635476442 -0.0058599308571711 0)
(1.0004003093506 -0.0072250951396653 0)
(1.0005713487855 -0.0086253114554252 0)
(1.0007797666153 -0.010048409233566 0)
(1.0010272054571 -0.011481259949748 0)
(1.001315306317 -0.012916495749905 0)
(1.0016442377915 -0.014352757995881 0)
(1.0020162957309 -0.015798102890223 0)
(1.0024320663459 -0.017261496580844 0)
(1.0028972159989 -0.018756377410276 0)
(1.0034123886047 -0.020283795098356 0)
(1.0039875643686 -0.02185011380393 0)
(1.0046193769437 -0.023438774512047 0)
(1.0053240797375 -0.025057985226933 0)
(1.006087799545 -0.026675828729911 0)
(1.0069409257551 -0.028324905206964 0)
(1.0078476589519 -0.029945630383262 0)
(1.0088709878307 -0.031623534861708 0)
(1.0099273134147 -0.033224546593061 0)
(1.0111520241195 -0.034947135873132 0)
(1.0123539537963 -0.036483365224084 0)
(1.0138304747113 -0.03828617511444 0)
(1.015148621062 -0.039663951785107 0)
(1.0169685917017 -0.041638836633171 0)
(1.0183290396471 -0.042659501081302 0)
(1.0207541862317 -0.045100639972452 0)
(1.0000007886597 -0.00067137524132584 0)
(1.0000247503781 -0.0020022577371115 0)
(1.0000713027007 -0.0033334918923519 0)
(1.0001413005963 -0.0046729814289044 0)
(1.0002364073013 -0.0060434439134276 0)
(1.0003600557564 -0.0074585227574553 0)
(1.0005158965332 -0.008914126078483 0)
(1.0007073095148 -0.010396779996153 0)
(1.0009361229422 -0.011891805149636 0)
(1.0012041358259 -0.013390930982331 0)
(1.0015116093807 -0.014892815507061 0)
(1.0018610499237 -0.016406714432948 0)
(1.0022532343857 -0.017943169890343 0)
(1.002694300284 -0.019517548290513 0)
(1.003185211417 -0.021131702644064 0)
(1.0037367221748 -0.022792903747389 0)
(1.0043457188858 -0.024483542964434 0)
(1.0050295842207 -0.026212571834187 0)
(1.0057743622813 -0.027945802528997 0)
(1.0066122541243 -0.02971866449788 0)
(1.0075066421228 -0.031467390515998 0)
(1.0085237841865 -0.03328466810771 0)
(1.0095775144301 -0.035026507632259 0)
(1.0108096877813 -0.036907276912096 0)
(1.0120221666428 -0.038595473662644 0)
(1.0135261020977 -0.040579610095787 0)
(1.0148709976945 -0.042114309684175 0)
(1.0167472210117 -0.04430151517534 0)
(1.0181536306967 -0.045468929514004 0)
(1.0206880165638 -0.048181520280987 0)
(1.0000007487836 -0.00068812499603329 0)
(1.0000214911203 -0.0020512752366776 0)
(1.0000618889042 -0.0034155418532035 0)
(1.0001226878545 -0.0047892042397539 0)
(1.0002055824736 -0.0061975201425661 0)
(1.0003142141413 -0.0076560503070508 0)
(1.0004525014641 -0.0091606622332131 0)
(1.0006240725227 -0.010696580527411 0)
(1.0008309242533 -0.012247576095297 0)
(1.0010749933705 -0.01380447093587 0)
(1.0013566255174 -0.015365967371233 0)
(1.0016785088139 -0.016942544890526 0)
(1.0020415945252 -0.018546389242178 0)
(1.0024524411817 -0.020194833747846 0)
(1.0029123127655 -0.021890629760093 0)
(1.0034326763245 -0.023641992295421 0)
(1.0040106775329 -0.025430383872539 0)
(1.0046647647209 -0.027265544936635 0)
(1.0053809622744 -0.029111158964585 0)
(1.0061931936896 -0.031005564134525 0)
(1.0070641741445 -0.032880953806216 0)
(1.0080632865303 -0.034837295123595 0)
(1.0091020565165 -0.036720846312565 0)
(1.0103286375533 -0.038761978789885 0)
(1.011538286352 -0.040605901392138 0)
(1.0130558353865 -0.042776830259676 0)
(1.0144139218854 -0.044475715745128 0)
(1.0163325729922 -0.046885005021618 0)
(1.0177725735123 -0.048209907963833 0)
(1.0203995967824 -0.051204972265759 0)
(1.0000007011028 -0.00070164939034934 0)
(1.0000178976099 -0.0020906297214869 0)
(1.0000515129975 -0.0034815207195299 0)
(1.0001021673181 -0.0048829277128191 0)
(1.000171563459 -0.0063226342059788 0)
(1.0002635101836 -0.0078181335993256 0)
(1.0003821630803 -0.0093652879091334 0)
(1.0005313601783 -0.010948033879999 0)
(1.0007132548324 -0.012548613891827 0)
(1.0009298869245 -0.014156931432665 0)
(1.0011816878982 -0.015771764145349 0)
(1.0014714732681 -0.017404799927447 0)
(1.0018003704045 -0.019069937535823 0)
(1.0021752579389 -0.02078645956132 0)
(1.002597716761 -0.022558150037517 0)
(1.0030797807505 -0.024394143323368 0)
(1.0036189402249 -0.026275179092492 0)
(1.0042345057511 -0.028211743568318 0)
(1.0049126884949 -0.030165651739626 0)
(1.0056888318807 -0.032178102081887 0)
(1.0065253388499 -0.034177551889168 0)
(1.0074943094658 -0.036271192750666 0)
(1.0085054467195 -0.038295927123864 0)
(1.0097126894314 -0.040497986420327 0)
(1.0109054279931 -0.042499760749824 0)
(1.0124211326421 -0.044861330652764 0)
(1.0137778436468 -0.046729600044624 0)
(1.015722383592 -0.049370167093302 0)
(1.0171829071656 -0.050862212032716 0)
(1.0198841849442 -0.054148307882768 0)
(1.0000006448766 -0.00071205391048246 0)
(1.0000140107718 -0.0021206401596946 0)
(1.000040310339 -0.0035319534741233 0)
(1.0000800375633 -0.0049548710920032 0)
(1.0001348760489 -0.0064196600810004 0)
(1.0002087350434 -0.0079457340614864 0)
(1.0003059695928 -0.0095289796390034 0)
(1.0004305839687 -0.011152066116631 0)
(1.0005849000367 -0.01279575752475 0)
(1.0007710150493 -0.014449028572052 0)
(1.0009894778633 -0.01611078090906 0)
(1.0012431252838 -0.017793840329821 0)
(1.001533308788 -0.019513898996602 0)
(1.0018670114582 -0.021292070110853 0)
(1.0022462594119 -0.02313338168534 0)
(1.0026833091354 -0.025047719971052 0)
(1.0031763298089 -0.027015505427051 0)
(1.0037449394928 -0.029047667586085 0)
(1.0043761845428 -0.031104775920506 0)
(1.005105917258 -0.033230340831362 0)
(1.0058973036059 -0.035350022246927 0)
(1.006823770951 -0.037577389280414 0)
(1.0077949193504 -0.039741274292694 0)
(1.008968287243 -0.042102858981584 0)
(1.0101304456516 -0.04426259161978 0)
(1.011627008018 -0.046816662676258 0)
(1.0129677706567 -0.048856318029324 0)
(1.0149170663897 -0.051734265971025 0)
(1.0163856537078 -0.053399625024028 0)
(1.019131127074 -0.056981048343209 0)
(1.0000005805423 -0.00071951013485091 0)
(1.0000098964448 -0.0021418042489062 0)
(1.0000284557773 -0.0035676020187428 0)
(1.0000566427946 -0.00500598528976 0)
(1.000096095725 -0.0064896792886896 0)
(1.0001507518118 -0.0080400248772281 0)
(1.0002251255508 -0.009652967922745 0)
(1.0003233182559 -0.011309919138491 0)
(1.0004478401143 -0.012990203984699 0)
(1.0006007845602 -0.014681835773316 0)
(1.0007829046062 -0.016383895781697 0)
(1.0009969066177 -0.018110233985087 0)
(1.0012445016255 -0.019878457774328 0)
(1.0015323954589 -0.021711300039481 0)
(1.0018633818367 -0.023615369843955 0)
(1.0022492404961 -0.025600907963057 0)
(1.0026896392378 -0.027648731668045 0)
(1.0032032222311 -0.029769375874293 0)
(1.0037795800335 -0.031923505513029 0)
(1.0044526183224 -0.03415528728097 0)
(1.0051895159467 -0.036389941252729 0)
(1.0060604436878 -0.038744666859028 0)
(1.0069809744776 -0.04104369927957 0)
(1.0081040770856 -0.043559927942173 0)
(1.0092244927484 -0.045874995450911 0)
(1.0106820649063 -0.048619856554534 0)
(1.0119958696035 -0.0508289538789 0)
(1.0139248517427 -0.0539446649834 0)
(1.0153873227498 -0.055780230866584 0)
(1.0181477343122 -0.059652415525943 0)
(1.0000005092954 -0.00072429773413715 0)
(1.0000057178166 -0.0021550105279644 0)
(1.0000163746904 -0.0035898952781564 0)
(1.0000326957646 -0.0050380662060899 0)
(1.000056176959 -0.0065346497348487 0)
(1.0000907303294 -0.0081029567799217 0)
(1.0001410576232 -0.0097391407049091 0)
(1.0002113287242 -0.011423471326809 0)
(1.0003042806807 -0.013133912386741 0)
(1.0004219348583 -0.014857459813013 0)
(1.0005653211547 -0.016593330746415 0)
(1.0007368162712 -0.018356156836034 0)
(1.0009386347293 -0.020165526725686 0)
(1.0011767352401 -0.022045544168113 0)
(1.0014551657941 -0.024004906299821 0)
(1.0017842903785 -0.026053735074901 0)
(1.0021665928123 -0.028174363693122 0)
(1.0026176675736 -0.03037553308049 0)
(1.0031327014841 -0.032620254860987 0)
(1.0037389529755 -0.034950102572365 0)
(1.0044144384995 -0.037294500277211 0)
(1.0052157162146 -0.039768021446128 0)
(1.0060792236528 -0.042198630213764 0)
(1.0071315761521 -0.044861269942172 0)
(1.008206551896 -0.047329460659535 0)
(1.0095957278482 -0.050261316070365 0)
(1.0108876861457 -0.052635888538271 0)
(1.0127560026243 -0.055999951080222 0)
(1.0142325103355 -0.057982313729058 0)
(1.0169494225995 -0.062199078682767 0)
(1.0000004171706 -0.00072688358637691 0)
(1.0000015782391 -0.0021617479664168 0)
(1.0000045137841 -0.0036013961766516 0)
(1.0000091201399 -0.0050548934688838 0)
(1.0000164732675 -0.0065595754853853 0)
(1.0000302686186 -0.008140507027125 0)
(1.0000553774343 -0.0097942017525486 0)
(1.0000961368506 -0.011500076740482 0)
(1.0001557487923 -0.013234985468131 0)
(1.0002363048571 -0.014985079593853 0)
(1.0003391984381 -0.016749750486373 0)
(1.0004663247716 -0.018544180724569 0)
(1.0006202292898 -0.020389851048398 0)
(1.0008056924804 -0.022311908118892 0)
(1.0010280986721 -0.024321582513087 0)
(1.001295853734 -0.02642849424373 0)
(1.0016151688535 -0.02861794323986 0)
(1.0019972001265 -0.030895408617599 0)
(1.0024452705126 -0.033229533392534 0)
(1.0029756481111 -0.035654805977802 0)
(1.0035841724691 -0.038112640342178 0)
(1.0043017619672 -0.040704034166546 0)
(1.0051048212306 -0.043278068678265 0)
(1.0060625440578 -0.046088612315931 0)
(1.0070955318576 -0.048733404084001 0)
(1.0083734817215 -0.051861633367673 0)
(1.0096640274523 -0.054434062946688 0)
(1.0114009244515 -0.058094731686213 0)
(1.0129758221062 -0.060246419280218 0)
(1.0155687022371 -0.065090158269825 0)
(1.000000272143 -0.00072849134939775 0)
(0.99999689651417 -0.0021658386168853 0)
(0.99999199770706 -0.0036093905289162 0)
(0.99998497241727 -0.0050681369813097 0)
(0.99997651387508 -0.0065819537120323 0)
(0.99996996185554 -0.0081773579998523 0)
(0.99996997866164 -0.0098508696289702 0)
(0.99998120549421 -0.011580297655977 0)
(1.0000068929097 -0.013341345862262 0)
(1.0000492831666 -0.015119522462343 0)
(1.0001103006843 -0.016914783784337 0)
(1.0001917313609 -0.018743448851522 0)
(1.0002963985958 -0.02062945631371 0)
(1.0004280716115 -0.02259931416599 0)
(1.0005928038468 -0.024666908748135 0)
(1.000797213459 -0.026840927420945 0)
(1.0010502421023 -0.029109875567322 0)
(1.0013595859246 -0.031474824716655 0)
(1.0017355477826 -0.033912250506995 0)