/*--------------------------------*- C++ -*----------------------------------*\
| =========                 |                                                 |
| \\      /  F ield         | OpenFOAM: The Open Source CFD Toolbox           |
|  \\    /   O peration     | Version:  2112                                  |
|   \\  /    A nd           | Website:  www.openfoam.com                      |
|    \\/     M anipulation  |                                                 |
\*---------------------------------------------------------------------------*/
FoamFile
{
    version     2.0;
    format      ascii;
    arch        "LSB;label=32;scalar=64";
    class       volScalarField;
    location    "15.5";
    object      p;
}
// * * * * * * * * * * * * * * * * * * * * * * * * * * * * * * * * * * * * * //

dimensions      [0 2 -2 0 0 0 0];

internalField   nonuniform List<scalar> 
22000
(
0.04275101571815
0.042728372180328
0.042681644380105
0.0426096725054
0.042511957855128
0.042388522018241
0.042239595889789
0.042065414158693
0.041866146096267
0.04164190865195
0.041392803898523
0.041118951107321
0.040820496321298
0.040497617426053
0.040150514320606
0.039779415377734
0.039384562047781
0.038966232259387
0.038524709666116
0.038060335715413
0.037573436674727
0.037064438360186
0.036533698955898
0.03598176612893
0.035408995021505
0.034816126979853
0.034203422012471
0.033571963912845
0.032921691985021
0.032254325938827
0.043173691949906
0.043149984962036
0.043102066657775
0.043028864429003
0.042929824760899
0.042804889288691
0.042654233103452
0.042478061627878
0.04227652735695
0.042049732646189
0.041797761803165
0.041520713975137
0.041218711877108
0.040891910393581
0.040540483042112
0.040164634672492
0.039764577578438
0.039340568854014
0.038892860572735
0.038421781038788
0.037927618944106
0.037410800825241
0.036871630413138
0.036310681631104
0.035728213995509
0.035125045107274
0.034501239661579
0.033858040508686
0.033194924809624
0.032513792882448
0.043946950723738
0.043922663840623
0.043873644452186
0.043798910345276
0.043697960973455
0.04357073189063
0.043417361044185
0.043238011863109
0.043032799056466
0.04280179124417
0.042545037777145
0.04226260109706
0.041954561990391
0.041621033359783
0.041262140771627
0.040878045947141
0.040468908193924
0.040034944937746
0.039576348283012
0.039093417650421
0.038586368577856
0.038055623775962
0.037501384723191
0.036924276403333
0.03632438781024
0.035702704316835
0.035058951986021
0.034394759561092
0.033708786767354
0.033003472995268
0.045016915831916
0.044992104347156
0.044942028343237
0.04486570631667
0.044762644674405
0.044632770621345
0.044476194250241
0.044293038398624
0.044083370480266
0.043847209757973
0.043584552421321
0.043295405790899
0.042979788628872
0.042637751517
0.042269348466963
0.041874675649674
0.041453811976469
0.041006912813512
0.04053407877695
0.040035561537514
0.039511465496884
0.038962200427924
0.038387814640781
0.037788996205416
0.037165581124759
0.036518776719194
0.035847806151382
0.035154805752585
0.034437225322089
0.033698194935388
0.04633612430031
0.046310816264127
0.046259731200637
0.046181875316705
0.046076745055076
0.045944245770275
0.045784450109706
0.045597430943253
0.045383195779194
0.045141698372719
0.044872862296172
0.044576618683803
0.044252900806021
0.043901673011516
0.04352289063345
0.043116558045979
0.042682642372286
0.042221209688969
0.041732232673232
0.04121588998054
0.040672131029121
0.040101334557472
0.039503337764734
0.038878892185496
0.038227493629745
0.037550611728993
0.036846811976013
0.036118859207903
0.035362664289355
0.034582240401403
0.047862069718151
0.047836359412641
0.047784451725972
0.047705343715577
0.047598518178252
0.047463847787055
0.04730135327721
0.047111041831688
0.046892844074262
0.046646629777258
0.046372228904488
0.046069473532173
0.04573818561802
0.045378216349225
0.044989391862328
0.044571594501233
0.044124644090991
0.043648485214011
0.043142921359923
0.042608026652612
0.0420435464655
0.041449802985984
0.040826360620785
0.040174024852142
0.039491863649351
0.038781638114185
0.038041110253342
0.037273772390981
0.036473685652157
0.035645871911667
0.049556176982865
0.049530244689012
0.049477876831965
0.049398060319455
0.049290258518838
0.049154301609017
0.048990145468996
0.048797716331642
0.048576850408698
0.048327314080888
0.048048821697345
0.047741082164543
0.047403778778312
0.047036620578138
0.046639271609669
0.046211458873692
0.045752816098324
0.045263129760529
0.044741988637728
0.044189324646237
0.043604625189999
0.042988121612027
0.042339038568371
0.041658214539429
0.040944199187824
0.04019905373624
0.039419591682559
0.038610094919634
0.037762474081701
0.036882807600446
0.051383010869724
0.051357113699741
0.05130481022285
0.051225073842751
0.051117339671489
0.050981384327811
0.05081708641292
0.050624277231295
0.050402682493328
0.050151946858521
0.049871647643709
0.049561346449513
0.049220560015565
0.048848824989645
0.048445608852665
0.048010447591821
0.047542747571243
0.047042096739879
0.046507820077915
0.045939663657864
0.045336798276192
0.044699321338393
0.044026046294109
0.043317808698001
0.042572545661396
0.041792605370897
0.040973711462189
0.04012095873177
0.039223828124761
0.038289422334571
0.05330981590682
0.053284278189291
0.053232692897565
0.053154024943445
0.053047677389329
0.052913363880932
0.052750873830659
0.052559929913337
0.052340131021713
0.052090981343073
0.05181190030895
0.05150227957177
0.051161443047451
0.050788725598688
0.050383363905747
0.049944666306239
0.049471769411137
0.048964019566254
0.048420426714997
0.047840502422569
0.047223039173521
0.046567948279
0.045873556630606
0.045140647374707
0.044366450243483
0.043553562126857
0.042696482881325
0.04180110084917
0.040854213308962
0.039863820900439
0.055306242062116
0.055281441769485
0.055231335801261
0.055154890739036
0.055051477720701
0.054920739408895
0.054762364566598
0.054575954986158
0.054360969820003
0.054116758124716
0.053842562776415
0.05353758288606
0.053200924186227
0.052831692571559
0.052428862395491
0.051991479232612
0.051518368720578
0.051008591616825
0.050460791346507
0.04987419274381
0.049247147033399
0.048579319970917
0.047868475766899
0.047115280414738
0.04631616242506
0.045473904413522
0.044581659209845
0.043646040490142
0.042650939655681
0.041605021809497
0.057344284769531
0.057320639833904
0.057272856032194
0.057199914573138
0.057101157357931
0.056976150695756
0.056824473760961
0.056645597686556
0.056438831545826
0.056203357650884
0.055938228621161
0.05564243452574
0.055314841553285
0.054954300899922
0.054559495793071
0.054129177198192
0.053661822502694
0.053156164646565
0.052610431430661
0.052023507094988
0.051393240097656
0.050718984727342
0.049997867354765
0.04923035936295
0.048411998892742
0.047545662993384
0.04662304881194
0.045651375289848
0.044611442106596
0.043512229638662
0.059398338826856
0.05937629232402
0.059331724780338
0.059263647683828
0.05917137903184
0.059054405857997
0.058912191838261
0.058744071308271
0.058549197206664
0.058326578254152
0.058075068043877
0.057793436064271
0.057480294426711
0.05713422118092
0.056753584389758
0.056336811862364
0.055882000666026
0.055387517853006
0.05485113200728
0.054271334028866
0.053645412349265
0.052972339990459
0.052248535278588
0.051474184116727
0.050643852579049
0.049760395174562
0.048813963449868
0.047812205900016
0.04673269020592
0.045584239922926
0.061445297731773
0.061425301540056
0.061384863860721
0.061323043804459
0.061239142651166
0.06113256822734
0.061002666576927
0.06084863354864
0.060669465055487
0.060463994935213
0.060230875078339
0.059968649298536
0.059675667912778
0.059350224591005
0.05899035771631
0.058594150963691
0.05815929509697
0.057683758472883
0.057164814836115
0.056600512992557
0.055987532218077
0.055324392793571
0.054606742598245
0.053834381816949
0.053000834626495
0.052108788565559
0.051146783743077
0.050122667465444
0.049010686204833
0.047818908095973
0.063464657090024
0.063447156582798
0.063411749853545
0.063357562910853
0.063283889805392
0.063190061887927
0.063075309338255
0.062938692771157
0.062779055825368
0.062595062365902
0.062385166799081
0.062147689504864
0.061880719431407
0.06158226281406
0.061250022891925
0.060881728069466
0.060474648558038
0.060026328121421
0.059533519455791
0.058993786650156
0.058403161809376
0.057759643463897
0.057058059074576
0.056297714839212
0.055471039343556
0.054580385658941
0.05361264531382
0.052575577151696
0.051440077858291
0.050212735596055
0.065438589484172
0.065424008462577
0.065394492370091
0.065349254033872
0.065287591029936
0.065208763971152
0.06511189298081
0.064995911669637
0.064859521994782
0.06470122922675
0.064519301749694
0.064311846556124
0.064076700561671
0.063811588594971
0.063513883783518
0.063180957831152
0.062809658488955
0.06239709117641
0.061939473775387
0.06143385065218
0.060875582208647
0.060262081151072
0.059587320540733
0.058850001684231
0.058041425944774
0.05716342287521
0.056201233519067
0.055162188776396
0.054013871709705
0.052760540133713
0.06735197465043
0.067340702338618
0.067317868115614
0.067282793271267
0.067234791195967
0.067173059265867
0.067096616892112
0.067004283762803
0.066894636338949
0.066766038930709
0.066616592444131
0.066444208420507
0.066246490153037
0.066020896793375
0.065764487425468
0.065474286553766
0.065146730392891
0.064778483895919
0.064365233251955
0.063903479736266
0.063387902795386
0.062815272985534
0.062178693722078
0.061476150236944
0.060697810189411
0.059844777672489
0.058900685146381
0.057872048251693
0.056723249489761
0.05545524307126
0.069192372945259
0.069184754073902
0.069169304930981
0.069145476606958
0.069112610576866
0.069069851366094
0.069016130613121
0.068950171244801
0.068870445451476
0.0687751998986
0.068662393194344
0.06852976681944
0.068374717539238
0.068194464060544
0.067985778421593
0.067745359050946
0.067469254684962
0.067153700745587
0.066793869937888
0.066385712475409
0.065923237135461
0.065402527500521
0.064815822468616
0.064160284868036
0.063424967839894
0.062610033708909
0.061697598080912
0.060692943801882
0.059557460865957
0.058287718791893
0.070949936147986
0.070946265366059
0.070938800397537
0.070927144285628
0.070910681541159
0.070888514553846
0.070859502437072
0.070822292418884
0.070775277983443
0.070716615914481
0.070644153180893
0.070555493367706
0.070447861965425
0.070318271481302
0.070163244015504
0.069979184856886
0.069761791865642
0.069506896367451
0.069209189871135
0.06886407965448
0.068464931525662
0.068007117163519
0.067482038416721
0.066885944293569
0.066206818529293
0.06544365827469
0.06457718252523
0.063610991026011
0.06250381585472
0.061246703471098
0.072617271219701
0.072617782534082
0.072618786482771
0.072620059402738
0.072621039295698
0.072620797742677
0.072618138486186
0.072611657189062
0.072599698845303
0.072580362760931
0.072551419371942
0.072510371105611
0.072454313256838
0.072380094044152
0.072284031926637
0.072162283695054
0.072010244563083
0.071823382830342
0.071595953958883
0.071322849806382
0.07099683134192
0.070612557386095
0.070160630602006
0.069636335510927
0.069026650188713
0.068329231391701
0.067523517048563
0.066610926695789
0.06554790598816
0.064318836661716
0.074189255544721
0.074194127919029
0.074203970097215
0.074218749049763
0.074237969144685
0.074260684460119
0.074285661574035
0.074311466832217
0.074336426686762
0.074358620416156
0.074375785811639
0.074385366789461
0.074384372707263
0.074369532621216
0.074337015106529
0.074282782643844
0.074201986849711
0.074089788567406
0.073940065014869
0.07374724503426
0.073503528348688
0.073202898135998
0.072835167406735
0.072394674494696
0.071867393218769
0.071249660845615
0.07051969836856
0.069676455523981
0.068674120514677
0.06748914518319
0.075662811080111
0.075672177719319
0.075691123763698
0.075719814118627
0.075757828080738
0.075804222836928
0.075857754684574
0.07591698386071
0.075980239339846
0.076045610217134
0.076110851303909
0.07617340024885
0.076230233151824
0.076278007527633
0.07631280423386
0.076330449774319
0.076325924901718
0.0762941450776
0.076228684555948
0.076123578958336
0.075970525555543
0.075762921206602
0.075489763394506
0.075144565729353
0.07471205827638
0.074187577626525
0.073547800498588
0.072790110019782
0.071865598644698
0.070742046578756
0.07703663310038
0.077050585616686
0.077078823133182
0.077121698241493
0.077178856537955
0.077249367378087
0.077332009176391
0.07742538243932
0.077527852403055
0.077637537708845
0.07775224320765
0.077869438801934
0.07798612665438
0.078098948349321
0.078203973497991
0.078296943101881
0.078372762376929
0.07842615488934
0.078450512976326
0.0784395239153
0.078384512776211
0.078278357314663
0.078109310993606
0.077870240464828
0.077544258267549
0.077126174561569
0.076589486477736
0.075932775886422
0.075101363638161
0.074060478490503
0.078310956998725
0.078329492314963
0.078367077726747
0.078424273249063
0.078500790750252
0.078595677313556
0.078707706763574
0.078835560165355
0.078977727623994
0.079132427829247
0.079297539841025
0.079470552184108
0.079648529343943
0.079828159590242
0.08000559812107
0.080176529190229
0.080335886837965
0.080478205999482
0.080596885765201
0.080685201937422
0.080734427572141
0.080736730702626
0.080680139477618
0.08055658611798
0.080348147919966
0.080048943215887
0.079627533898559
0.079084751511133
0.078352078616884
0.077415268281118
0.079487489617954
0.079510405607625
0.079557049606387
0.079628335084075
0.079724114457787
0.079843405841417
0.079984888267711
0.0801472207883
0.080329108304294
0.080529066422149
0.080745092338557
0.080974639448135
0.081214837198472
0.081462458801647
0.081713843703456
0.081964672451806
0.082210032131024
0.082444216280803
0.082660825307161
0.082852473680175
0.083010885881886
0.083126803727543
0.083189365438622
0.083187687852854
0.083106287791667
0.082934617586146
0.082643706578516
0.082225917900967
0.081596032628649
0.080746611757691
0.080569658635906
0.080596656674297
0.080651471384514
0.08073587457994
0.08084986894903
0.080992496489237
0.081162461628732
0.081358147535383
0.08157831507855
0.081822255971004
0.082088077370976
0.082373168561978
0.082674776462113
0.0829897776716
0.083314678931797
0.08364526353408
0.083976983598113
0.084304058664892
0.084620508046326
0.084918266736748
0.085189914480176
0.085424117592792
0.085612447411284
0.085738609639939
0.085794714975797
0.085756399685928
0.08561809750964
0.085338066895719
0.084877303507658
0.084060921627065
0.031611513571453
0.030996537802337
0.030368088305544
0.029727363700699
0.029075494554694
0.028413345864632
0.027741591801851
0.027060854665586
0.026371795832838
0.025675142575935
0.024971677697986
0.024262217342105
0.023547594113497
0.022828650804389
0.022106240978996
0.021381230075667
0.020654495005521
0.019926921900283
0.019199403459271
0.018472836603756
0.01774812118134
0.017026160803408
0.016307868248573
0.015594173197001
0.014886015163224
0.014184142337508
0.013489195756825
0.012801981749102
0.01212336755463
0.011454185872201
0.010795201419717
0.010147119351383
0.009510599703542
0.0088862678374723
0.008274712918658
0.0076764891034149
0.0070921062883153
0.006522036512712
0.0059666986406872
0.0054264781804625
0.0049016948800906
0.0043926504225065
0.0038995545742058
0.003422635467738
0.00296197068477
0.0025177395527069
0.0020898343476902
0.0016784290909174
0.0012830584623511
0.00090388271961164
0.031860581097755
0.031237980626641
0.030599917364019
0.029949119376093
0.029287375980109
0.028615477697608
0.027933757021377
0.027242552006245
0.026542389323755
0.025833969431581
0.025118090109847
0.024395582443414
0.023667282563032
0.022934033536043
0.022196697664064
0.021456162973829
0.020713341679937
0.019969165845572
0.019224583050811
0.018480552002174
0.017738036188673
0.016997994469172
0.016261364186778
0.015529037926928
0.014801854135812
0.014080848870507
0.013367163334288
0.012661710656689
0.011965295683162
0.011278707928097
0.010602740403791
0.0099381744186107
0.0092857586657136
0.0086462031440186
0.0080201694639388
0.007408277869723
0.0068110924239125
0.0062291401958615
0.0056628788296145
0.0051127429710764
0.0045790710153746
0.0040622145526044
0.0035623716901445
0.0030798406745558
0.0026146381374363
0.0021670848618228
0.0017369399323394
0.0013247620939686
0.00092998529424229
0.00055422320231783
0.032328756081588
0.03168446860908
0.031020301037488
0.030342422635919
0.029654226621563
0.02895652218764
0.028249072890714
0.027531754044225
0.026804926565223
0.026069329200703
0.025325863270119
0.024575443739578
0.023818950542362
0.023057248964355
0.022291225044728
0.021521801531223
0.02074993452063
0.019976604582107
0.019202809631599
0.018429559260189
0.017657869428326
0.016888759347584
0.016123253079479
0.015362388170638
0.014607227152535
0.013858790502661
0.013118034641139
0.012385913438757
0.011663354748476
0.010951257857042
0.010250492871257
0.0095619006440202
0.00888628112599
0.0082243943999988
0.0075769449973755
0.0069445974631048
0.006327948237263
0.0057275653664911
0.0051439246655547
0.0045775044518473
0.0040286391394201
0.00349774094763
0.0029849626949633
0.0024907142209843
0.0020148846130873
0.0015580462648763
0.0011196816385858
0.0007010355980179
0.00030122225414053
-7.5576732263124e-05
0.032991700189726
0.032312755590315
0.031607671082459
0.030888088989458
0.030159800310206
0.029423529232608
0.028678103748031
0.027922680601404
0.027157377816814
0.02638299507038
0.025600576473923
0.024811137340634
0.024015591589835
0.023214803621599
0.022409659821307
0.021601099063128
0.020790106627519
0.019977699870558
0.019164918724979
0.018352819958853
0.017542472204925
0.016734952393561
0.015931341850901
0.015132719616968
0.014340149972668
0.013554684659662
0.012777369292228
0.012009226729515
0.011251253890499
0.010504419535954
0.00976965628571
0.0090478625982866
0.0083398905969563
0.0076465553198568
0.0069686115630715
0.0063067817956894
0.0056617074084628
0.0050340180507946
0.0044242217126463
0.0038328693477725
0.0032603016977369
0.0027070343866252
0.0021731713149149
0.0016593044957246
0.0011651562147675
0.00069169264893959
0.00023802176798877
-0.00019352768010381
-0.00060416317518199
-0.00098548869626052
0.03383580274885
0.033111170225233
0.032352146640918
0.031577957363333
0.030797570960035
0.030011465850379
0.029217126862531
0.028412729384167
0.027598084993589
0.026774093217762
0.025941991178772
0.025102917400121
0.024257816174402
0.023407536992619
0.022552954781214
0.021695018557204
0.020834740586772
0.019973173339854
0.019111395833276
0.018250506556158
0.017391617202962
0.016535848324047
0.015684325861432
0.014838177762204
0.013998529176137
0.013166498740971
0.012343193172388
0.01152970075995
0.010727083334019
0.0099363753799711
0.0091585743570601
0.0083946454806599
0.0076455047725253
0.006912035866532
0.0061950556432836
0.0054953586240747
0.0048136421244128
0.004150614690782
0.0035068260705159
0.0028829228749617
0.002279256470094
0.0016964803602837
0.0011346410536627
0.0005945746620492
7.5800042667597e-05
-0.0004201883976151
-0.00089474781109381
-0.0013441016616389
-0.0017698640800734
-0.002158017634148
0.034852941822079
0.034072705624861
0.033247558255316
0.032406639649881
0.031562927901352
0.030716460295409
0.029862936836617
0.028999285560392
0.028124966262435
0.027241037305131
0.026348990892284
0.025450116832016
0.024545388866833
0.023635629710645
0.022721693877128
0.021804537731686
0.02088520072708
0.01996477075661
0.019044365245396
0.01812512315022
0.017208198872992
0.016294758851328
0.015385979576448
0.014483045323992
0.013587141974168
0.01269944871779
0.011821132890935
0.010953346507632
0.010097217372783
0.0092538493145027
0.0084243092659332
0.0076096355717823
0.006810814845045
0.0060288074028063
0.0052644990079225
0.0045187662799403
0.0037923696066903
0.0030861101622456
0.0024005853443886
0.0017365580633591
0.0010943910967598
0.00047491005576762
-0.00012191021119154
-0.00069492611949234
-0.0012448727959746
-0.0017695927963668
-0.0022710264128865
-0.0027435768824637
-0.0031893436020448
-0.0035871093576574
0.036038233439045
0.035193266382629
0.034290348804628
0.033371148692042
0.032453532876762
0.031536835997477
0.030614471185874
0.029681837792525
0.028738011890037
0.02778428622121
0.026822477788476
0.025854054781191
0.024880015702874
0.023901142753828
0.022918260916661
0.021932331605535
0.020944422654036
0.019955658523185
0.018967195313978
0.017980212516808
0.016995907451078
0.016015492810156
0.015040195550814
0.01407125481218
0.013109914482311
0.012157415161308
0.011214989055743
0.010283856320193
0.0093652149119517
0.0084602427632114
0.0075700817114152
0.0066958501768615
0.0058386124173573
0.0049994149242972
0.0041792213086489
0.0033790026841021
0.0025995921463568
0.0018419002485331
0.0011065811500174
0.00039453769891629
-0.00029385177767323
-0.00095755320056462
-0.001596674317344
-0.0022096999025485
-0.0027976660931318
-0.003357614172683
-0.0038921779457749
-0.0043935425900916
-0.0048643275905866
-0.0052743669355482
0.037389465679823
0.036471313156048
0.035479370968316
0.034470777706387
0.033469215697177
0.032472972168184
0.031472600406597
0.030461673910909
0.029438870824747
0.028405813191917
0.027364719371634
0.026317261256147
0.025264454255027
0.024207024649979
0.02314575961124
0.022081625582008
0.021015721866581
0.019949212254122
0.018883292927115
0.017819184224177
0.016758126451227
0.015701378806902
0.014650219349663
0.013605943510796
0.012569855913157
0.011543262186097
0.010527463277683
0.0095237521285833
0.0085334020807112
0.0075576714974551
0.0065977837940679
0.0056549454940564
0.0047303071910286
0.003825012113741
0.0029401118272357
0.0020766857976757
0.0012356513383632
0.0004180463531323
-0.0003754075469813
-0.0011436427345979
-0.0018862594238304
-0.0026019769414233
-0.0032909939516181
-0.0039513553162481
-0.0045844411928339
-0.0051863434796045
-0.0057604951227121
-0.0062964390105791
-0.006797334311837
-0.0072221907289241
0.038906178851677
0.037906964961762
0.036815028168861
0.035706282984179
0.034611193246286
0.033526551918112
0.032439401795564
0.031341183749276
0.030230189883273
0.029108490562181
0.027978790249246
0.026842986075314
0.025702096686867
0.024556775847888
0.023407766643881
0.022256042857857
0.021102740342871
0.019949065841852
0.018796257302521
0.017645576858313
0.016498308711189
0.015355759915127
0.014219261627788
0.013090168256618
0.011969848488104
0.01085967641466
0.0097610255735978
0.0086752666433429
0.0076037539536434
0.0065478326186779
0.0055088149880287
0.0044880045226815
0.0034866474060106
0.0025059950067662
0.0015471985999433
0.00061146046689691
-0.00030020471214609
-0.0011866125709666
-0.00204696054952
-0.0028799901551949
-0.0036852703558603
-0.004461234557038
-0.0052081752170234
-0.0059236283252098
-0.0066093538454122
-0.007260344530867
-0.0078809286399869
-0.008457567107486
-0.0089939385113239
-0.0094361764599181
0.040588859403788
0.039501225673375
0.038298557892012
0.037079233203636
0.035881479168425
0.034700026211309
0.033517678645019
0.032323437805179
0.031115254967975
0.029895792910404
0.02866833177012
0.027435009825798
0.02619683024309
0.024954356062043
0.02370828191535
0.022459594501314
0.021209473234959
0.019959172454308
0.018709974070036
0.017463182905857
0.01622012813973
0.014982166552474
0.013750684919289
0.012527099479941
0.01131284596009
0.010109370200818
0.0089181225018464
0.0077405563991199
0.0065781134767186
0.0054322329822475
0.0043043241353723
0.0031957963240756
0.0021080021948179
0.0010423134031912
-5.6692363393791e-09
-0.0010176141568974
-0.0020093834856507
-0.0029739626513674
-0.0039104498920379
-0.0048173682867746
-0.0056942387133009
-0.0065391678841299
-0.0073525359265828
-0.0081313010654011
-0.0088776298386997
-0.0095852707071329
-0.010259534965519
-0.010883358827158
-0.011460872233696
-0.011923104782821
0.042438224027524
0.041255318604297
0.03993144053737
0.038591493969687
0.037282431133544
0.035996205154823
0.034710581166505
0.033411834413998
0.032097668251454
0.030771508320804
0.02943729966759
0.028097426266218
0.02675284926253
0.025404023523695
0.02405159499265
0.022696571766946
0.021340185751376
0.019983744269081
0.018628575435061
0.017276027976774
0.015927477393917
0.014584332113772
0.01324803726617
0.011920074375387
0.010601950271541
0.0092951857912076
0.0080013111046216
0.0067218670696528
0.0054583891551366
0.0042124185933874
0.0029854710147861
0.0017790715396818
0.00059469057177654
-0.00056616767986008
-0.0017021094869007
-0.0028116394914885
-0.0038934948085787
-0.0049461372156044
-0.0059685410649374
-0.0069589836098233
-0.0079169111773479
-0.0088400631883312
-0.0097288861568041
-0.010579689665423
-0.011395048287001
-0.012167313708116
-0.012902832074228
-0.013580575610345
-0.014205019527655
-0.014689811974076
0.044454622239171
0.043170111319195
0.041714872882371
0.040244754596838
0.03881631952928
0.037417859806493
0.03602123982854
0.034609763154869
0.033181038537223
0.031739453246326
0.030289700719545
0.028834399060011
0.027374433187606
0.02591013419682
0.024442105014255
0.022971388497313
0.021499279137739
0.020027142428337
0.018556355100044
0.017088311198868
0.015624434492824
0.014166187439745
0.012715075483154
0.011272646714462
0.0098404829101301
0.0084201854231297
0.0070133698455182
0.0056216686617571
0.0042467158359003
0.002890160705424
0.0015536347304901
0.00023878924269757
-0.0010527733866952
-0.0023194041984736
-0.0035595621866641
-0.004771581789069
-0.005954039740826
-0.0071051910254316
-0.0082238521034487
-0.0093080290157085
-0.010357053064776
-0.011368260463794
-0.012342125537279
-0.013274248749306
-0.014167598021595
-0.015012988630469
-0.01581782548157
-0.016556619647828
-0.017233919257731
-0.017743371658548
0.046637493485371
0.045245605034634
0.043649313296062
0.042040125575316
0.040484959241406
0.038967370626951
0.037452425572687
0.035920284692289
0.03436868841182
0.032803206878529
0.03122935205215
0.02964994517574
0.028065751949908
0.026476968237075
0.02488416783703
0.023288446568679
0.021691173444362
0.02009377691857
0.018497683498129
0.016904333700578
0.01531520278879
0.013731812463181
0.012155735134144
0.010588587982799
0.0090320216929822
0.0074877122571719
0.0059573697161034
0.0044427336084567
0.0029455462236136
0.0014675677068551
1.0549612057393e-05
-0.0014237227452725
-0.0028335006969332
-0.004216976989149
-0.0055724413648717
-0.0068980436844337
-0.0081921689526906
-0.0094528477248206
-0.010678692018765
-0.011867415550688
-0.013018170653187
-0.014127861320672
-0.015196910961308
-0.016220160053495
-0.017200895882076
-0.01812829017526
-0.019010802197016
-0.019818187232885
-0.020555087953336
-0.021092839975014
0.048984931144045
0.047480506733527
0.045734091506288
0.04397778967674
0.042289387388333
0.040646420027393
0.039006254926274
0.037345850832606
0.03566339338852
0.033965871645853
0.032259658855511
0.030547723742099
0.028830666465113
0.027108544918751
0.025381926822687
0.023651984593988
0.02192017441636
0.020187991940803
0.018456914607422
0.016728430003696
0.015004064308155
0.013285400336696
0.011574082348158
0.0098718217130106
0.0081803552955437
0.0065013920978319
0.0048367245540346
0.0031882180491291
0.0015577406357725
-5.2824277533915e-05
-0.0016415979929179
-0.0032066566716748
-0.0047460959605288
-0.0062579379304254
-0.0077402817294971
-0.0091910760931156
-0.010608479655218
-0.011990282609167
-0.013334836103469
-0.01463954533506
-0.015903295534328
-0.017122539105817
-0.018297523139393
-0.019422285050169
-0.020500271423671
-0.02151884815507
-0.022487255441529
-0.023369736783701
-0.024169767773125
-0.024732829006595
0.051493325694232
0.049871889387511
0.047967107046588
0.046056730494745
0.044229605201259
0.042455738658621
0.04068394273659
0.038888069814882
0.037067161601195
0.035229865795087
0.033383420872837
0.03153085829447
0.029672563319479
0.027808467025458
0.025939167722984
0.024065942353552
0.022190346361118
0.020313945699114
0.01843827106765
0.016564861402837
0.014695301091989
0.012831232815881
0.010974356325607
0.0091264724165609
0.0072894208265797
0.0054650052051082
0.0036550858847157
0.0018616216918883
8.6592184787956e-05
-0.001667984094811
-0.0034000837519038
-0.0051076273109173
-0.0067885486427516
-0.0084406850709342
-0.010061931038183
-0.011650011137221
-0.013202829924487
-0.014717912014432
-0.016193295211195
-0.017626057219673
-0.019014720537451
-0.020355278857649
-0.021647649741723
-0.022885067743826
-0.024070947630704
-0.025190847318278
-0.02625473399453
-0.027221385633536
-0.028093616051579
-0.028689398638188
0.054157124427697
0.052414950468114
0.050344610947554
0.048274532488218
0.046304374566643
0.044394890771954
0.042485589450955
0.040547510465008
0.038581058439577
0.036596761982082
0.034602676049355
0.032601781964604
0.030594206369508
0.02857978240357
0.026559187894294
0.024533837112876
0.02250539536101
0.020475500213616
0.018445736677639
0.016417702191527
0.014393046856319
0.012373490167467
0.010360825606369
0.0083568592291672
0.0063634357130727
0.0043826151504252
0.0024164011422352
0.00046677762475419
-0.0014642069021256
-0.0033743973605698
-0.0052616217556191
-0.0071236251509509
-0.0089581723508763
-0.010762889854157
-0.012535468851952
-0.014273367778298
-0.015974233328875
-0.017635265875645
-0.01925417132022
-0.020827639015837
-0.022353767041129
-0.023828057022551
-0.025249954955811
-0.02661191306205
-0.027917079027171
-0.0291492489751
-0.030318784778512
-0.031378692760009
-0.032330008366028
-0.032959544351517
0.056968668487401
0.055102873964816
0.052861090621024
0.050627264246096
0.048511086893367
0.046462130436233
0.044410031895062
0.042323557330739
0.040205071913726
0.03806716016983
0.035918575141907
0.033762112387221
0.031597613453067
0.029424867056657
0.027244691896018
0.025058670966887
0.022868587683349
0.020676152266488
0.018483009559707
0.016290821644679
0.014101311910111
0.011916274237729
0.0097375610100723
0.00756707374999
0.0054067820740958
0.0032587747919394
0.0011251350038653
-0.00099201388967947
-0.0030905025728398
-0.0051680542510181
-0.0072223725215142
-0.0092510230505091
-0.011251606967598
-0.013221508103986
-0.015158229454186
-0.017058899572349
-0.01892094334399
-0.020741116642697
-0.022516852273931
-0.024244274283173
-0.025921113378446
-0.027542184882768
-0.029106442661349
-0.030605429954622
-0.032041826495349
-0.033397634592984
-0.034683144859544