/*--------------------------------*- C++ -*----------------------------------*\
| =========                 |                                                 |
| \\      /  F ield         | OpenFOAM: The Open Source CFD Toolbox           |
|  \\    /   O peration     | Version:  2112                                  |
|   \\  /    A nd           | Website:  www.openfoam.com                      |
|    \\/     M anipulation  |                                                 |
\*---------------------------------------------------------------------------*/
FoamFile
{
    version     2.0;
    format      ascii;
    arch        "LSB;label=32;scalar=64";
    class       volVectorField;
    location    "3.3";
    object      U;
}
// * * * * * * * * * * * * * * * * * * * * * * * * * * * * * * * * * * * * * //

dimensions      [0 1 -1 0 0 0 0];

internalField   nonuniform List<vector> 
22000
(
(1.000001292499 -3.0712650928847e-05 0)
(1.0000313057887 -9.0126575110877e-05 0)
(1.000088379121 -0.00014759694558761 0)
(1.0001728179657 -0.00020302038098388 0)
(1.000284077204 -0.0002566835350174 0)
(1.0004214747259 -0.00030940525297498 0)
(1.0005846685054 -0.00036204855186414 0)
(1.0007736681067 -0.0004150420139205 0)
(1.0009886215286 -0.00046824580229276 0)
(1.0012295047892 -0.00052104376792746 0)
(1.0014958716452 -0.00057248537334161 0)
(1.0017868437254 -0.000621685226995 0)
(1.0021012196959 -0.00066810048421948 0)
(1.0024377192827 -0.00071165646677395 0)
(1.0027950266051 -0.00075224748108978 0)
(1.0031718094195 -0.00078977118939463 0)
(1.0035662773368 -0.00082386835869052 0)
(1.0039763586158 -0.00085503645350337 0)
(1.0044002668224 -0.00088362792678113 0)
(1.0048378301956 -0.00091097655326298 0)
(1.0052889424575 -0.00093615615675133 0)
(1.0057527672046 -0.00095979414356355 0)
(1.006226251989 -0.00097842670874191 0)
(1.0067078547771 -0.00099469999479266 0)
(1.0071951991443 -0.0010039896221473 0)
(1.0076886678864 -0.0010162050534158 0)
(1.0081853467531 -0.0010235600293869 0)
(1.0086893900048 -0.0010470812906248 0)
(1.0092007210798 -0.0010659178563902 0)
(1.0097317702967 -0.0011176236165808 0)
(1.0000006512627 -9.0459362063292e-05 0)
(1.0000308360728 -0.00026571070594397 0)
(1.0000885938899 -0.00043550850344719 0)
(1.0001741057979 -0.0005994618185711 0)
(1.0002868816634 -0.000758304284612 0)
(1.000426327031 -0.00091444629451434 0)
(1.0005922059467 -0.0010705679050288 0)
(1.0007846437334 -0.0012279984487309 0)
(1.0010038520897 -0.0013861925445916 0)
(1.0012498445126 -0.001543236758902 0)
(1.0015221622718 -0.0016964621392525 0)
(1.0018199318947 -0.0018433267476871 0)
(1.0021419339536 -0.0019819223849472 0)
(1.0024868758371 -0.0021116261395668 0)
(1.0028533638615 -0.0022322023097865 0)
(1.0032401958295 -0.0023438853992648 0)
(1.0036453900393 -0.0024459521280717 0)
(1.0040667166709 -0.0025393910469052 0)
(1.0045019549119 -0.00262440888863 0)
(1.0049514769104 -0.0027046228428768 0)
(1.0054147182258 -0.0027781150783837 0)
(1.0058915017796 -0.0028476720341674 0)
(1.0063772671031 -0.002903530775151 0)
(1.0068725405533 -0.0029523658301731 0)
(1.0073720030399 -0.0029795255036313 0)
(1.0078802029203 -0.0030128117086611 0)
(1.0083870125304 -0.0030306264581617 0)
(1.0089065689461 -0.003095310417793 0)
(1.0094239406629 -0.0031494666480646 0)
(1.0099755654973 -0.0033020182543061 0)
(1.0000006854439 -0.00014799025050597 0)
(1.0000321286206 -0.00043509702693058 0)
(1.0000922273409 -0.00071370593797798 0)
(1.0001811404571 -0.00098306658884476 0)
(1.0002983642498 -0.0012442804944937 0)
(1.0004433340839 -0.0015013353284825 0)
(1.0006159043698 -0.0017587533299472 0)
(1.0008163139938 -0.0020187528886597 0)
(1.0010448559656 -0.0022803231357037 0)
(1.0013016138498 -0.0025402260695905 0)
(1.0015861290987 -0.0027941172171117 0)
(1.0018975492182 -0.0030378234571693 0)
(1.0022346514177 -0.0032679937183941 0)
(1.0025962077278 -0.0034833260626504 0)
(1.0029807655498 -0.0036833694401703 0)
(1.0033871914163 -0.0038687238964838 0)
(1.0038130609469 -0.0040383482308984 0)
(1.0042559808932 -0.0041936795882268 0)
(1.0047132768678 -0.0043346019396385 0)
(1.0051862510035 -0.0044670096495448 0)
(1.0056735685767 -0.0045880917342641 0)
(1.0061761371652 -0.0047031093152279 0)
(1.0066868647572 -0.004795808795174 0)
(1.0072096697563 -0.00487694824587 0)
(1.0077341516836 -0.0049209281237766 0)
(1.008272672973 -0.0049740084139504 0)
(1.0088025027952 -0.004999370603537 0)
(1.0093563897036 -0.0051032307692322 0)
(1.0098907288677 -0.0051886957489833 0)
(1.0104869711443 -0.0054418951163942 0)
(1.000000706119 -0.00020458150431731 0)
(1.0000335794612 -0.0006018997418408 0)
(1.0000965070473 -0.00098790229098989 0)
(1.000189711542 -0.0013614945090549 0)
(1.0003127192007 -0.0017241809814984 0)
(1.0004650220108 -0.0020815639715006 0)
(1.0006465748282 -0.0024400073763344 0)
(1.0008577498702 -0.0028025965956286 0)
(1.0010989557196 -0.0031678452119099 0)
(1.0013703815269 -0.0035311811135957 0)
(1.0016715888282 -0.003886538897814 0)
(1.0020017713699 -0.0042280627907392 0)
(1.0023596707373 -0.0045509221600187 0)
(1.0027440883014 -0.0048530971635996 0)
(1.003153421704 -0.005133821574495 0)
(1.0035866354457 -0.0053939846286099 0)
(1.004040860436 -0.0056321952644295 0)
(1.0045137413496 -0.0058504406903149 0)
(1.005001961732 -0.0060483027912277 0)
(1.0055079051156 -0.0062340283409156 0)
(1.0060290008848 -0.0064037596764303 0)
(1.0065679454259 -0.0065654678555115 0)
(1.0071141470262 -0.0066962184464605 0)
(1.0076764016522 -0.0068114681453767 0)
(1.0082367941626 -0.0068737443563284 0)
(1.0088191415115 -0.0069488070084941 0)
(1.0093826516609 -0.0069819718021553 0)
(1.0099870644128 -0.0071263376191068 0)
(1.0105473642075 -0.0072399850051536 0)
(1.0112095082343 -0.0075944871961721 0)
(1.0000007298619 -0.00026046720204528 0)
(1.0000352399496 -0.00076694400233289 0)
(1.0001014243205 -0.0012596182569077 0)
(1.0001995974319 -0.0017370229761718 0)
(1.0003293382067 -0.0022010767089038 0)
(1.0004902159978 -0.002659051644629 0)
(1.0006823075362 -0.0031192122285992 0)
(1.0009061651363 -0.0035855418316593 0)
(1.0011623812681 -0.0040560592931185 0)
(1.0014513150987 -0.004524789040468 0)
(1.0017725823465 -0.0049838587105862 0)
(1.0021254558622 -0.0054256863461749 0)
(1.0025086303655 -0.0058439224021008 0)
(1.0029209313165 -0.006235746874003 0)
(1.0033605659301 -0.0065999186898098 0)
(1.0038266196309 -0.0069375170090723 0)
(1.0043156937419 -0.0072467727881699 0)
(1.0048255114391 -0.0075303429000888 0)
(1.0053519098487 -0.0077875017900221 0)
(1.0058984588527 -0.008028910815037 0)
(1.0064610041587 -0.0082494597213952 0)
(1.0070445964568 -0.0084601156184545 0)
(1.0076344835858 -0.0086308858315023 0)
(1.0082455979979 -0.0087826729813217 0)
(1.0088504549133 -0.0088646074540389 0)
(1.0094874057311 -0.0089637708510275 0)
(1.0100925173149 -0.0090037455947961 0)
(1.0107606564306 -0.0091899753968599 0)
(1.0113529880796 -0.0093271250152187 0)
(1.0121000846299 -0.0097852526971501 0)
(1.0000007533311 -0.00031575708259733 0)
(1.0000369948384 -0.00093061051765435 0)
(1.0001066470643 -0.0015295672824795 0)
(1.0002101396264 -0.0021107596435133 0)
(1.0003471226005 -0.0026765266493163 0)
(1.0005172752912 -0.0032358684060604 0)
(1.0007208393387 -0.0037990285877905 0)
(1.0009585888796 -0.0043709400929343 0)
(1.0012313384382 -0.0049491001717834 0)
(1.0015396506403 -0.0055260343538519 0)
(1.0018832039364 -0.0060919557041208 0)
(1.002261366988 -0.0066374987414593 0)
(1.0026727967178 -0.0071547255568125 0)
(1.0031163686727 -0.0076399096399549 0)
(1.0035901081602 -0.0080911661252439 0)
(1.0040932957967 -0.0085097219297982 0)
(1.0046220357296 -0.0088934016316437 0)
(1.0051742343399 -0.009245655535494 0)
(1.005744830809 -0.0095653185888143 0)
(1.0063386852612 -0.0098656579040578 0)
(1.0069498907316 -0.010140139393972 0)
(1.0075861356675 -0.010403306964821 0)
(1.0082280349526 -0.010617634130571 0)
(1.0088973487541 -0.01081006117938 0)
(1.009555737547 -0.010914884415536 0)
(1.0102584521455 -0.011041696242529 0)
(1.0109148427913 -0.011090063562502 0)
(1.0116613769912 -0.011321983784395 0)
(1.0122944130346 -0.011482726869026 0)
(1.0131460036754 -0.012052598642935 0)
(1.0000007734693 -0.00037037780426968 0)
(1.0000387200604 -0.0010927110911685 0)
(1.0001118210286 -0.0017974856526768 0)
(1.0002206399416 -0.0024824010237737 0)
(1.0003649168202 -0.0031502254227539 0)
(1.0005444704051 -0.0038117666275705 0)
(1.0007597439631 -0.0044793400896319 0)
(1.0010117786734 -0.0051588674385785 0)
(1.0013016630759 -0.0058472922233877 0)
(1.0016302302057 -0.0065355650806324 0)
(1.0019972853166 -0.0072118719079031 0)
(1.0024023535479 -0.0078649648832187 0)
(1.0028440660295 -0.0084852426363037 0)
(1.0033213717073 -0.0090680421472943 0)
(1.0038320635057 -0.0096107117683135 0)
(1.0043756084809 -0.010114505695533 0)
(1.0049474863097 -0.010576676268413 0)
(1.0055459354265 -0.011001633115705 0)
(1.0061648154954 -0.01138783445022 0)
(1.0068106046111 -0.011751480948056 0)
(1.0074750450151 -0.012084168331739 0)
(1.0081693406112 -0.012404203638158 0)
(1.0088681399352 -0.012665877133067 0)
(1.0096021677025 -0.012903427233842 0)
(1.0103193002715 -0.01303578172641 0)
(1.011096482467 -0.013196779564036 0)
(1.011810063393 -0.013258910486777 0)
(1.0126473665626 -0.013542362325087 0)
(1.0133262096945 -0.013724950899966 0)
(1.0142987773595 -0.014406117426584 0)
(1.0000007879015 -0.00042409986721656 0)
(1.0000402953757 -0.0012525862400336 0)
(1.0001165977981 -0.0020623122577413 0)
(1.0002304126515 -0.0028505180554175 0)
(1.0003815949159 -0.0036204216236801 0)
(1.0005701373364 -0.0043847186964192 0)
(1.0007967276399 -0.0051578804012882 0)
(1.0010627235582 -0.0059468649828196 0)
(1.0013695302731 -0.0067480514020273 0)
(1.0017182842321 -0.0075507419813087 0)
(1.0021089309464 -0.0083409763831382 0)
(1.0025411744646 -0.0091055437530866 0)
(1.0030136375807 -0.0098331367262178 0)
(1.0035253910956 -0.010518109836451 0)
(1.0040740101114 -0.011156879535417 0)
(1.0046592523074 -0.011750577351907 0)
(1.005276027389 -0.01229580304057 0)
(1.0059231251655 -0.012798100501901 0)
(1.0065931993308 -0.013255626362869 0)
(1.0072945687915 -0.01368759828275 0)
(1.0080161870938 -0.014083354353174 0)
(1.0087735845914 -0.01446517650917 0)
(1.0095344797775 -0.014778793520778 0)
(1.0103403843222 -0.015067338072509 0)
(1.0111225177345 -0.015232748537767 0)
(1.0119835086767 -0.015436300412588 0)
(1.0127602678849 -0.015516549097403 0)
(1.0137003002375 -0.015859532514103 0)
(1.0144303385697 -0.016060527999141 0)
(1.0155427584431 -0.016857929586384 0)
(1.0000007943837 -0.00047657987694682 0)
(1.0000416068635 -0.001409224831269 0)
(1.0001206496526 -0.002322394986325 0)
(1.0002388130929 -0.0032128537623068 0)
(1.0003960899052 -0.00408428535914 0)
(1.0005926734443 -0.0049513522922752 0)
(1.0008295295115 -0.005830779535858 0)
(1.0011083745595 -0.0067306113391069 0)
(1.0014309717838 -0.0076466271992767 0)
(1.0017988100883 -0.0085664071870556 0)
(1.0022120404357 -0.0094737664950918 0)
(1.0026706256916 -0.010353470518813 0)
(1.0031732305577 -0.01119241117217 0)
(1.003719075026 -0.011983877668203 0)
(1.0043055065073 -0.012723247069271 0)
(1.0049326029904 -0.013411529137211 0)
(1.0055947375181 -0.014044598634527 0)
(1.0062913312075 -0.014629213981081 0)
(1.0070137710675 -0.015163111287859 0)
(1.0077722317028 -0.015668819251872 0)
(1.0085528730281 -0.016133312719457 0)
(1.009375875418 -0.016583374659581 0)
(1.010201972967 -0.016955586840827 0)
(1.0110837514425 -0.017302592098983 0)
(1.0119349630536 -0.017507859631829 0)
(1.0128850308964 -0.017762109747479 0)
(1.013729725946 -0.017866596700662 0)
(1.0147793757355 -0.018278884385544 0)
(1.0155703379034 -0.018505948624356 0)
(1.0168337630872 -0.019430177013564 0)
(1.0000007909877 -0.00052740092977404 0)
(1.0000425502491 -0.0015613891645731 0)
(1.000123671582 -0.0025756941426705 0)
(1.0002452322361 -0.0035665910107118 0)
(1.000407388216 -0.0045382457026629 0)
(1.0006105662948 -0.0055073637945366 0)
(1.0008560491004 -0.0064930139732461 0)
(1.0011459600179 -0.0075043603206665 0)
(1.0014824619417 -0.0085365495686283 0)
(1.0018674328825 -0.0095753975850613 0)
(1.002301261631 -0.010602450079518 0)
(1.002784199101 -0.011600397041291 0)
(1.0033149602572 -0.012554250773966 0)
(1.0038929722772 -0.013456212807353 0)
(1.0045153889066 -0.014300578724959 0)
(1.0051827133301 -0.015088216907177 0)
(1.0058887763984 -0.015814088012207 0)
(1.0066338729365 -0.016486196642703 0)
(1.007407990807 -0.017101808523206 0)
(1.0082235671458 -0.017687272751543 0)
(1.0090634631117 -0.018226944967485 0)
(1.0099534334878 -0.018752530533699 0)
(1.0108460615844 -0.019190215388823 0)
(1.011806806903 -0.019603236953615 0)
(1.0127297961013 -0.01985513209735 0)
(1.0137741310941 -0.020169099510771 0)
(1.0146924416545 -0.020306600678645 0)
(1.015856155656 -0.020797203489793 0)
(1.0167235902024 -0.02106786781837 0)
(1.0181386587804 -0.022117804299569 0)
(1.0000007759207 -0.00057611042948603 0)
(1.0000430351507 -0.001707726737413 0)
(1.0001254004668 -0.002819963456237 0)
(1.000249148819 -0.0039086035414303 0)
(1.0004146265639 -0.0049783134968917 0)
(1.0006225236959 -0.0060479052126029 0)
(1.0008744677526 -0.0071388647958261 0)
(1.0011730167348 -0.0082615152029429 0)
(1.0015207592047 -0.0094103569483904 0)
(1.0019199934317 -0.010569404812834 0)
(1.0023713818091 -0.011717896590521 0)
(1.0028755079823 -0.012836426093233 0)
(1.0034311993133 -0.013908088042718 0)
(1.0040381843036 -0.014923948129728 0)
(1.0046934569177 -0.015877137029926 0)
(1.0053979875682 -0.016768340341279 0)
(1.0061450731898 -0.017591573074812 0)
(1.0069361224646 -0.018356180312979 0)
(1.0077596921977 -0.019058968822788 0)
(1.0086307759573 -0.019730290635043 0)
(1.0095284358701 -0.020351634073723 0)
(1.0104847406115 -0.020960148829155 0)
(1.0114431850859 -0.021470822229848 0)
(1.0124840242794 -0.021959333621454 0)
(1.013479842799 -0.022266660241673 0)
(1.0146222467258 -0.022652585551048 0)
(1.015617980793 -0.022832627418123 0)
(1.0169010164733 -0.023412574882838 0)
(1.0178500165892 -0.023735453300652 0)
(1.0194265026457 -0.024923014416883 0)
(1.0000007479822 -0.00062225363393039 0)
(1.0000429888144 -0.001846868400094 0)
(1.0001256219408 -0.0030529158317048 0)
(1.0002501339901 -0.0042356910263632 0)
(1.000417084262 -0.0054003823917255 0)
(1.000627449685 -0.0065679528209253 0)
(1.0008832251888 -0.0077623573611625 0)
(1.0011874250894 -0.0089951130961008 0)
(1.0015430900044 -0.010260068901034 0)
(1.0019529689639 -0.011539402392818 0)
(1.0024180373958 -0.012810016645791 0)
(1.0029392503349 -0.014050429440975 0)
(1.003515596882 -0.015241837761331 0)
(1.0041471537696 -0.016374152028794 0)
(1.0048307967845 -0.017439253191613 0)
(1.0055680024758 -0.018437628153043 0)
(1.006351625757 -0.019362382971249 0)
(1.007184318478 -0.020224359629595 0)
(1.0080533188444 -0.02101985689696 0)
(1.0089762358019 -0.021783276843015 0)
(1.0099283428259 -0.022492966423733 0)
(1.0109481936761 -0.023192073260684 0)
(1.011970205472 -0.023784039853323 0)
(1.0130899022833 -0.024358505594976 0)
(1.0141580573508 -0.024731819879773 0)
(1.0153994464557 -0.025202810113672 0)
(1.0164746592958 -0.025436398367067 0)
(1.0178804057528 -0.026116994340428 0)
(1.0189151944996 -0.026500753501005 0)
(1.0206628172465 -0.027841551498528 0)
(1.0000007066746 -0.00066540600631041 0)
(1.0000423570165 -0.001977520530433 0)
(1.000124174177 -0.0032723742017431 0)
(1.0002478649553 -0.004544785741751 0)
(1.0004142204113 -0.0058004809840094 0)
(1.0006245220082 -0.007062598877654 0)
(1.0008811511627 -0.0083575957763048 0)
(1.0011875920956 -0.0096982059512422 0)
(1.0015473512566 -0.011077628322445 0)
(1.0019636362062 -0.012476191951961 0)
(1.0024377628375 -0.01386847971215 0)
(1.0029710806527 -0.015230982836391 0)
(1.0035627846458 -0.016543046129439 0)
(1.0042133445973 -0.017793417691953 0)
(1.0049195892923 -0.01897266683295 0)
(1.0056835617864 -0.020081082777662 0)
(1.006497763662 -0.021110892606706 0)
(1.0073662007007 -0.0220745939254 0)
(1.0082748757777 -0.022967896842249 0)
(1.0092441214591 -0.023829369350547 0)
(1.0102454686025 -0.024633922090552 0)
(1.0113242000102 -0.025431283727062 0)
(1.0124056631 -0.026112998213692 0)
(1.0136009510913 -0.026784017618364 0)
(1.0147389589063 -0.027234552123781 0)
(1.0160778715941 -0.027804231891231 0)
(1.0172326559642 -0.028104274556328 0)
(1.0187626000652 -0.028899115595045 0)
(1.0198863039284 -0.029353891426903 0)
(1.0218129550258 -0.030866856949543 0)
(1.0000006530919 -0.0007051965843419 0)
(1.0000411148943 -0.0020985447876757 0)
(1.0001209654953 -0.0034764011187947 0)
(1.0002421475029 -0.0048331247757225 0)
(1.0004057033877 -0.0061749935295871 0)
(1.0006132281039 -0.0075273313056538 0)
(1.0008674970459 -0.0089191071090076 0)
(1.0011724560612 -0.01036428048525 0)
(1.0015320766325 -0.01185541123992 0)
(1.0019500166469 -0.013370989897918 0)
(1.0024279667992 -0.014883326136597 0)
(1.0029676832968 -0.016366941196691 0)
(1.0035686274741 -0.017799396010803 0)
(1.0042316869965 -0.01916827296789 0)
(1.004953731826 -0.020462828040107 0)
(1.0057374026655 -0.021683155702922 0)
(1.0065749558062 -0.022820680214526 0)
(1.0074718490335 -0.023889673619967 0)
(1.0084129318546 -0.024885235230718 0)
(1.009421375153 -0.025850207295221 0)
(1.0104649714486 -0.026755842091521 0)
(1.0115960112666 -0.027658966827622 0)
(1.0127307543891 -0.028438941297601 0)
(1.0139961771909 -0.029217217920257 0)
(1.0151993935186 -0.02975673172927 0)
(1.0166319660885 -0.030439315916919 0)
(1.0178642198085 -0.030820112522599 0)
(1.0195172357393 -0.031744888698584 0)
(1.0207309127015 -0.032282497766532 0)
(1.022840882091 -0.033988163225853 0)
(1.0000005863679 -0.00074132007149205 0)
(1.0000392573707 -0.0022089972178002 0)
(1.0001159808514 -0.0036633769202295 0)
(1.0002329323313 -0.0050983752957666 0)
(1.0003914207358 -0.0065208342804197 0)
(1.0005933598448 -0.0079582552200333 0)
(1.0008419190984 -0.0094421055638559 0)
(1.0011414852396 -0.010987561869432 0)
(1.0014964877834 -0.012586562197208 0)
(1.0019110127345 -0.014215786578434 0)
(1.0023871571765 -0.015845341250792 0)
(1.002927068571 -0.017447840325603 0)
(1.0035305449401 -0.01899916652876 0)
(1.0041988697285 -0.020485748469084 0)
(1.0049290843034 -0.021895607910671 0)
(1.0057243802803 -0.023228615148739 0)
(1.0065769552334 -0.02447554417622 0)
(1.007493693655 -0.025652465097311 0)
(1.008458492018 -0.026753962178834 0)
(1.0094973682981 -0.027827189010063 0)
(1.0105745143974 -0.028839633704591 0)
(1.0117494003947 -0.029855653645076 0)
(1.0129293335541 -0.030742187371415 0)
(1.0142572835998 -0.031638246402976 0)
(1.015519049383 -0.032278597405305 0)
(1.017039053984 -0.033088366901615 0)
(1.0183444854443 -0.033564832494651 0)
(1.0201168389995 -0.034636304526486 0)
(1.0214191603186 -0.035269819857455 0)
(1.0237130668146 -0.037188742931493 0)
(1.0000005076879 -0.00077354752561182 0)
(1.0000368006591 -0.0023081519949715 0)
(1.0001092625458 -0.003832039750838 0)
(1.0002202900211 -0.00533869942588 0)
(1.0003714626145 -0.0068355411318353 0)
(1.0005650118645 -0.0083522144608083 0)
(1.0008044911408 -0.009922642658868 0)
(1.0010947023352 -0.011563196691688 0)
(1.0014405131159 -0.013265217088741 0)
(1.0018464117952 -0.015003629194809 0)
(1.0023149122517 -0.016746426421286 0)
(1.0028485243705 -0.018464400914642 0)
(1.0034474269746 -0.020131874034256 0)
(1.0041132562729 -0.021734153521837 0)
(1.0048433738137 -0.023258136339164 0)
(1.005641425476 -0.024703418793138 0)
(1.0064998416405 -0.02606034510901 0)
(1.0074267314115 -0.027346665480166 0)
(1.0084054644625 -0.028556755983085 0)
(1.0094645875733 -0.029741867418628 0)
(1.0105651840947 -0.030865984792049 0)
(1.011773709085 -0.032001164822738 0)
(1.0129889907791 -0.033001908094027 0)
(1.0143698104463 -0.034025751750659 0)
(1.0156814467744 -0.03477848600965 0)
(1.0172802217303 -0.035729445185387 0)
(1.0186522324115 -0.036316716272271 0)
(1.0205373191701 -0.037552121539936 0)
(1.0219242189957 -0.038295723349622 0)
(1.0243986255425 -0.040447876429766 0)
(1.0000004183658 -0.00080173507857182 0)
(1.0000337799092 -0.0023955312307589 0)
(1.0001009047009 -0.0039815291020606 0)
(1.0002043938702 -0.0055528068528568 0)
(1.0003460942653 -0.00711733980493 0)
(1.0005285475679 -0.0087068748718702 0)
(1.0007556693854 -0.010357723380505 0)
(1.0010326417173 -0.012087413154793 0)
(1.0013647280751 -0.013886715245065 0)
(1.0017567841936 -0.01572887619234 0)
(1.0022117275792 -0.017579884789054 0)
(1.0027324231343 -0.019408816826702 0)
(1.0033194483267 -0.021188546303907 0)
(1.0039747873229 -0.022903327471563 0)
(1.0046961930568 -0.024539035218283 0)
(1.0054877225571 -0.026094997946865 0)
(1.0063422248765 -0.027561319307145 0)
(1.0072688898121 -0.028957309617644 0)
(1.0082509203968 -0.030277487852143 0)
(1.0093190052349 -0.031576851102701 0)
(1.0104317688914 -0.03281649038972 0)
(1.0116621044142 -0.034075931082809 0)
(1.0129013573363 -0.03519774820274 0)
(1.0143233313776 -0.036358533769484 0)
(1.0156742946953 -0.037234470797669 0)
(1.0173406936638 -0.038339947842129 0)
(1.01877045367 -0.039052586734979 0)
(1.020758485806 -0.040468603189055 0)
(1.0222229353348 -0.041336812251421 0)
(1.0248699745068 -0.043740352220353 0)
(1.0000003200421 -0.00082582523101784 0)
(1.0000302461883 -0.0024709134277874 0)
(1.0000910461961 -0.0041114069291319 0)
(1.0001855049894 -0.0057399890359473 0)
(1.0003157267589 -0.0073651891226162 0)
(1.0004845477542 -0.0090207811459403 0)
(1.0006962150126 -0.010745377877572 0)
(1.0009562500846 -0.012557612394538 0)
(1.0012702580494 -0.014447714167638 0)
(1.0016434163255 -0.016387335538536 0)
(1.002079013141 -0.018340583501949 0)
(1.0025802616606 -0.020274930921218 0)
(1.0031481292891 -0.022161919923953 0)
(1.0037849587445 -0.023984842052187 0)
(1.0044888997527 -0.025728673167928 0)
(1.0052644408272 -0.027392543678771 0)
(1.0061049109 -0.028966463453111 0)
(1.0070205856801 -0.030471231710809 0)
(1.0079946452848 -0.031901723776785 0)
(1.0090596981966 -0.033316453385787 0)
(1.010172419372 -0.034674186276045 0)
(1.0114114874814 -0.036061723596308 0)
(1.0126622276229 -0.037310454864278 0)
(1.0141117270754 -0.038616236156372 0)
(1.0154903061133 -0.039625106438594 0)
(1.0172106120117 -0.040897658518311 0)
(1.0186875755798 -0.041748719344732 0)
(1.0207653893778 -0.04336087965685 0)
(1.0222970305549 -0.044367907407123 0)
(1.0251037390962 -0.047038111486616 0)
(1.0000002144633 -0.00084584017477641 0)
(1.0000262602099 -0.0025343171682223 0)
(1.0000798580069 -0.0042216404180323 0)
(1.0001639541721 -0.0059001103856483 0)
(1.0002808928871 -0.0075787834975493 0)
(1.0004337792766 -0.0092933679108834 0)
(1.000627151339 -0.011084676313777 0)
(1.0008668254106 -0.012972383527781 0)
(1.0011586892449 -0.014946204558406 0)
(1.0015081867213 -0.016976292603926 0)
(1.0019189346731 -0.019025023284791 0)
(1.0023944783254 -0.021058386633838 0)
(1.0029361524054 -0.023046699601237 0)
(1.0035466436546 -0.02497236308919 0)
(1.0042244764507 -0.026819600468323 0)
(1.0049745951346 -0.028587450077421 0)
(1.0057908613412 -0.030265986570655 0)
(1.0066846480158 -0.031877425089842 0)
(1.0076392213186 -0.033417089361886 0)
(1.0086887712608 -0.034946948001579 0)
(1.0097887060247 -0.036423772993023 0)
(1.0110222864309 -0.037942034050993 0)
(1.01227137964 -0.039321967580732 0)
(1.0137327771261 -0.040779807979969 0)
(1.0151265833496 -0.041929639155731 0)
(1.0168844447157 -0.043380504971982 0)
(1.0183964955981 -0.04438123802746 0)
(1.0205480681146 -0.046203219309593 0)
(1.0221332946196 -0.0473623979443 0)
(1.0250813763564 -0.050310640713993 0)
(1.0000001027403 -0.000861868977041 0)
(1.000021878901 -0.0025859584536592 0)
(1.0000675091436 -0.0043125307307522 0)
(1.0001400898553 -0.0060335200985646 0)
(1.0002421873551 -0.0077584659385192 0)
(1.0003771350961 -0.0095248906005921 0)
(1.0005497041269 -0.011375687929861 0)
(1.0007659497569 -0.013331495785768 0)
(1.0010319787636 -0.0153815351146 0)
(1.0013534365588 -0.017494559061936 0)
(1.0017342290154 -0.019631397539132 0)
(1.0021782089244 -0.021756684127346 0)
(1.002687064608 -0.023839618272847 0)
(1.0032637788295 -0.025861736529182 0)
(1.0039072330942 -0.027806698231513 0)
(1.0046227910336 -0.029673555042168 0)
(1.0054049474375 -0.031452643683415 0)
(1.0062660750508 -0.033167441947168 0)
(1.0071897106005 -0.034813720168059 0)
(1.0082111228816 -0.036456964118085 0)
(1.0092852093852 -0.038052190118777 0)
(1.0104986515826 -0.039702458773448 0)
(1.0117321544822 -0.041216578709902 0)
(1.0131893295504 -0.042832194502267 0)
(1.0145843649249 -0.044129991996015 0)
(1.0163621660721 -0.045767665340092 0)
(1.0178945130829 -0.046927532538207 0)
(1.0201007470763 -0.048970171311298 0)
(1.0217246884557 -0.050293654668721 0)
(1.0247851921191 -0.053528828347016 0)
(0.99999998525513 -0.00087406391042903 0)
(1.000017160404 -0.0026262288159121 0)
(1.0000541587055 -0.0043846395542618 0)
(1.0001142349404 -0.0061408952193032 0)
(1.0002001819853 -0.0079049838075698 0)
(1.0003155128289 -0.0097161154160367 0)
(1.0004651542099 -0.011619132398181 0)
(1.0006553247198 -0.013635542024204 0)
(1.0008922899714 -0.015754083602748 0)
(1.0011818171322 -0.017942200336695 0)
(1.0015280635489 -0.020159369731261 0)
(1.0019351272477 -0.022368973402937 0)
(1.0024050737144 -0.02453920434574 0)
(1.0029410833025 -0.026650703122726 0)
(1.0035424649949 -0.028686840591572 0)
(1.004214828581 -0.030646747975239 0)
(1.0049535620292 -0.032521369539711 0)
(1.005771654298 -0.034335012765573 0)
(1.0066533403944 -0.036084073844736 0)
(1.0076341146386 -0.03783709535781 0)
(1.0086692586115 -0.03954834788617 0)
(1.0098477761532 -0.041329509299039 0)
(1.0110509258155 -0.042979183345064 0)
(1.0124875418382 -0.044755646403752 0)
(1.0138683573714 -0.046206299857484 0)
(1.0156473390036 -0.04803602679871 0)
(1.0171831906765 -0.049361086452297 0)
(1.0194207268194 -0.051630986768712 0)
(1.0210664794095 -0.053129306558953 0)
(1.0242086666441 -0.056657891517137 0)
(0.99999986087384 -0.0008826594791622 0)
(1.0000122151807 -0.0026557661344784 0)
(1.0000400836697 -0.0044388990522712 0)
(1.0000868636494 -0.0062233218057208 0)
(1.0001555945729 -0.0080194320648258 0)
(1.0002499338314 -0.0098680266598434 0)
(1.0003748845778 -0.011815793026879 0)
(1.0005367297455 -0.013885035483974 0)
(1.000741852398 -0.016064041720176 0)
(1.0009960779041 -0.01831905934155 0)
(1.0013038014761 -0.020608423109443 0)
(1.0016692303004 -0.022894338812485 0)
(1.0020948745018 -0.025144082771903 0)
(1.0025839154459 -0.027337278676486 0)
(1.0031363217629 -0.029457317681231 0)
(1.0037574820073 -0.031503315672001 0)
(1.004444311923 -0.033467381535126 0)
(1.0052094418127 -0.035373790581242 0)
(1.0060392225302 -0.037220452301891 0)
(1.0069672852506 -0.039077374614022 0)
(1.007951918424 -0.040900946884053 0)
(1.0090806784713 -0.042808766359322 0)
(1.0102399075177 -0.044593655396001 0)
(1.011637815091 -0.046529304854204 0)
(1.0129893611143 -0.048133092010047 0)
(1.0147469552275 -0.050153699871486 0)
(1.0162711033046 -0.051640638973312 0)
(1.0185099507287 -0.054135763480396 0)
(1.0201610800598 -0.055807679499416 0)
(1.0233576555774 -0.059627523044639 0)
(0.99999972648265 -0.00088802482678491 0)
(1.0000072337741 -0.002675637045687 0)
(1.0000258051565 -0.0044769975381613 0)
(1.0000589244142 -0.0062830671975793 0)
(1.0001098305205 -0.0081044666693988 0)
(1.0001822350105 -0.0099833549720628 0)
(1.0002811229574 -0.01196813974081 0)
(1.0004127548105 -0.014081957842242 0)
(1.0005835856261 -0.016312768227671 0)
(1.0007994565777 -0.018625757114672 0)
(1.0010650572081 -0.020978399082512 0)
(1.001384594888 -0.023331928410796 0)
(1.0017611595485 -0.025652881105669 0)
(1.0021977321295 -0.027919782954004 0)
(1.00269532715 -0.030116336192787 0)
(1.0032583643726 -0.032241415848795 0)
(1.003886209427 -0.034288909200594 0)
(1.0045892413548 -0.036281725223096 0)
(1.0053587887201 -0.03822072579499 0)
(1.0062221641993 -0.040174305959096 0)
(1.0071476341416 -0.042106374258135 0)
(1.0082105187622 -0.044134095712256 0)
(1.0093178470197 -0.046055366562691 0)
(1.0106543847653 -0.048146299240996 0)
(1.011971635762 -0.04990586482558 0)
(1.0136759331703 -0.052116749997879 0)
(1.0151930869277 -0.053758006637301 0)
(1.0173829978384 -0.056485500282299 0)
(1.0190627576413 -0.058293618944133 0)
(1.0222474479973 -0.062466114592683 0)
(0.99999957002159 -0.00089078919329294 0)
(1.0000023782931 -0.0026877203721395 0)
(1.0000116859376 -0.0045018807688296 0)
(1.0000311114887 -0.00632452633446 0)
(1.000064182022 -0.0081663008692872 0)
(1.0001144389186 -0.01007039624202 0)
(1.000186505445 -0.012086592398128 0)
(1.0002864572944 -0.014238804492839 0)
(1.0004208141174 -0.016514953139137 0)
(1.0005954380113 -0.018879366953759 0)
(1.0008154249438 -0.021288460777275 0)
(1.0010849483651 -0.023702641226319 0)
(1.0014078061603 -0.026087971260276 0)
(1.001786849359 -0.028421999510854 0)
(1.0022243809845 -0.030689078878707 0)
(1.0027234939475 -0.032887892734336 0)
(1.0032866104855 -0.035015110261157 0)
(1.0039204545299 -0.037091443801627 0)
(1.0046238573875 -0.039122862335041 0)
(1.0054126305993 -0.041171768065914 0)
(1.0062730398909 -0.043216976836948 0)
(1.0072519499645 -0.045363324612704 0)
(1.0083028556403 -0.047435709871324 0)
(1.0095461038511 -0.049683304769353 0)
(1.0108358675405 -0.051629839891719 0)
(1.0124399669885 -0.054045559951135 0)
(1.0139846227065 -0.055879428299537 0)
(1.0160555381982 -0.058911582195697 0)
(1.0178712834368 -0.060869056070787 0)
(1.0209253400792 -0.065734719976698 0)
(0.99999932288434 -0.00089253774681731 0)
(0.99999708089041 -0.0026969192855058 0)
(0.99999681190502 -0.0045227602828533 0)
(1.0000020618094 -0.0063622747988733 0)
(1.0000171817743 -0.0082255442738227 0)
(1.0000455768196 -0.010156906625074 0)
(1.0000914492105 -0.012207498588066 0)
(1.0001603449694 -0.014402313334902 0)
(1.0002589320351 -0.016728089356054 0)
(1.0003931946287 -0.019147599438345 0)
(1.0005677847437 -0.021616462298117 0)
(1.0007864536182 -0.024093871187128 0)
(1.0010533105976 -0.026545668236552 0)
(1.0013712904719 -0.028948700907545 0)
(1.0017435840909 -0.031288215672085 0)
(1.0021723979747 -0.033563035380016 0)
(1.0026624117349 -0.035773561664948 0)
(1.0032179999859 -0.037939062574527 0)
(1.0038459689086 -0.040072647554572 0)
(1.0045521480125 -0.042229013857801 0)