/*--------------------------------*- C++ -*----------------------------------*\
| =========                 |                                                 |
| \\      /  F ield         | OpenFOAM: The Open Source CFD Toolbox           |
|  \\    /   O peration     | Version:  2112                                  |
|   \\  /    A nd           | Website:  www.openfoam.com                      |
|    \\/     M anipulation  |                                                 |
\*---------------------------------------------------------------------------*/
FoamFile
{
    version     2.0;
    format      ascii;
    arch        "LSB;label=32;scalar=64";
    class       surfaceScalarField;
    location    "2.8";
    object      phi;
}
// * * * * * * * * * * * * * * * * * * * * * * * * * * * * * * * * * * * * * //

dimensions      [0 3 -1 0 0 0 0];

oriented        oriented;

internalField   nonuniform List<scalar> 
43645
(
0.39512397836663
-5.105327615988e-06
0.39513919527319
-1.5216936035302e-05
0.39516484517542
-2.5649934069139e-05
0.39520122330322
-3.6378160704563e-05
0.39524838459914
-4.7161329003131e-05
0.39530613191312
-5.7747346776851e-05
0.39537408073366
-6.794885279561e-05
0.39545171466192
-7.7633959877386e-05
0.39553845285276
-8.6738221754908e-05
0.39563373588909
-9.5283066539385e-05
0.39573706670933
-0.0001033308497217
0.39584797351754
-0.00011090683699905
0.39596595493079
-0.00011798144132356
0.39609053420757
-0.00012457930419589
0.39622134611203
-0.0001308119311971
0.39635819073596
-0.0001368446500829
0.39650085578347
-0.00014266507306462
0.39664895600387
-0.00014810024546337
0.3968017175486
-0.00015276156929597
0.3969583273793
-0.00015660985489257
0.39711811885391
-0.00015979149840533
0.3972814619203
-0.00016334308993808
0.3974494095238
-0.000167947626787
0.39762460908586
-0.00017519958520921
0.39780937222364
-0.00018476316078031
0.39800741693378
-0.00019804473311997
0.39821958444941
-0.00021216753855281
0.39844894191761
-0.00022935749090983
0.39869204291036
-0.00024310101498701
-0.00025985573948258
0.3989518986272
0.37294736541606
-9.9160481962453e-06
0.37296183893297
-2.9690501576241e-05
0.37298638607461
-5.019712523405e-05
0.37302132936089
-7.1321496469452e-05
0.37306675136248
-9.2583379497454e-05
0.3731224626869
-0.00011345871931412
0.37318809174696
-0.00013357796001657
0.37326315818893
-0.00015270044808002
0.37334710045387
-0.00017068053192749
0.37343933798257
-0.00018752063952037
0.37353934305749
-0.00020333596790052
0.37364666479679
-0.0002182286186309
0.37376087279189
-0.00023218947776799
0.37388152803559
-0.00024523458836683
0.37400820722889
-0.00025749116404693
0.37414061441593
-0.00026925187590974
0.37427851976793
-0.00028057046304787
0.37442163759773
-0.00029121811262446
0.37456932206684
-0.00030044607512621
0.37472077257631
-0.00030806040061648
0.3748751875544
-0.00031420651226627
0.37503273116281
-0.00032088673383115
0.37519434241279
-0.00032955891192655
0.37536269678681
-0.00034355399425615
0.37554030653917
-0.00036237294799831
0.37573108263346
-0.00038882086227657
0.3759360655073
-0.00041715044720204
0.37615831179967
-0.00045160381774066
0.37639440330652
-0.00047919255513682
-0.00051264998050457
0.37664719751325
0.35201570065179
-1.4719223350015e-05
0.35203007427549
-4.4064176013608e-05
0.35205438941554
-7.4512316232536e-05
0.3520889911871
-0.00010592331845419
0.35213397461303
-0.00013756685492517
0.35218916136222
-0.00016864551696734
0.35225419776426
-0.00019861440937418
0.35232862363085
-0.00022712636086607
0.3524118951766
-0.00025395212269321
0.35250343345141
-0.00027905895822852
0.35260270006952
-0.00030260262872326
0.35270923342567
-0.00032476201640663
0.35282259206801
-0.00034554816057607
0.35294232278857
-0.0003649653484106
0.35306799730197
-0.00038316571587918
0.35319932994438
-0.00040058455591701
0.35333610234278
-0.00041734289815555
0.35347803766038
-0.00043315346627876
0.35362449780793
-0.00044690625804339
0.35377469261372
-0.00045825524134632
0.3539277964504
-0.00046731038339986
0.35408391703266
-0.00047700735034169
0.35424389588443
-0.00048953779768653
0.35441035275859
-0.0005100109023875
0.35458573934699
-0.0005377595703047
0.35477400955489
-0.00057709110425692
0.35497614284436
-0.00061928377082519
0.35519529941173
-0.00067076041912123
0.35542781472149
-0.000711707897808
-0.00076151264812445
0.35567667735488
0.33225884203347
-1.951734047911e-05
0.33227321958379
-5.844177221951e-05
0.33229756986707
-9.8862645635383e-05
0.33233226389564
-0.0001406173927324
0.3323774151508
-0.00018271815495751
0.33243285820361
-0.00022408861373795
0.3324982454432
-0.00026400169187167
0.33257311736071
-0.00030199832028446
0.33265692935163
-0.00033776415442037
0.33274910331231
-0.00037123295868343
0.33284909210837
-0.00040259146343343
0.33295640839869
-0.00043207834436452
0.33307058681623
-0.00045972661466698
0.33319118059717
-0.00048555916498623
0.33331779293288
-0.000509778086238
0.33345016469342
-0.00053295635031705
0.33358807510197
-0.00055525333974776
0.33373123621853
-0.00057631461527656
0.33387900752218
-0.0005946775934974
0.33403061706557
-0.00060986481614857
0.33418522660374
-0.00062191995254939
0.33434289902111
-0.00063467979850828
0.3345043631558
-0.00065100196292373
0.33467215332954
-0.00067780110668888
0.33484859883215
-0.00071420510339851
0.33503766398775
-0.00076615629053562
0.33524020433999
-0.00082182415379978
0.33545953210988
-0.00089008821960349
0.33569165653309
-0.00094383235058611
-0.0010098999351351
0.33594004378921
0.31361088012405
-2.4340124280447e-05
0.31362535370226
-7.2915392068726e-05
0.31364990037721
-0.00012340936227591
0.3136849276256
-0.00017564468228588
0.31373057599265
-0.00022836656228429
0.31378669928633
-0.00028021194674111
0.31385296556042
-0.00033026800419118
0.31392892360789
-0.00037795640494304
0.31401403219687
-0.00042287277942739
0.31410770665979
-0.00046490745657559
0.31420937303703
-0.00050425787447556
0.3143185062359
-0.00054121157600085
0.3144346114976
-0.00057583190803171
0.31455723127248
-0.00060817897061482
0.31468596383802
-0.00063851068153369
0.31482054597182
-0.00066753851313275
0.31496075562357
-0.00069546301970929
0.31510632722972
-0.00072188624910296
0.31525664749625
-0.00074499788712045
0.31541096841593
-0.00076418576262054
0.31556841581315
-0.00077936737619742
0.31572901066268
-0.0007952746744015
0.31589340619485
-0.00081539752131776
0.31606418322738
-0.00084857816558689
0.31624367975373
-0.00089370165617765
0.31643603951069
-0.00095851607425658
0.31664201240681
-0.0010277970768992
0.31686504327399
-0.0011131191138205
0.31710063145895
-0.0011794205618234
-0.0012617594865343
0.31735249098257
0.29600955734338
-2.9195644696745e-05
0.29602415502142
-8.751310882203e-05
0.29604895194577
-0.00014820632531851
0.29608440292809
-0.00021109570280145
0.29613068427065
-0.00027464794220746
0.29618767065672
-0.0003371983693116
0.2962550291916
-0.0003976265745651
0.29633230322161
-0.00045523046948623
0.2964189515788
-0.00050952117008502
0.29651439078429
-0.00056034669455099
0.29661803951351
-0.00060790663507777
0.29672935943735
-0.00065253153025973
0.29684784609427
-0.00069431859431655
0.29697304861545
-0.00073338152028524
0.29710458471243
-0.00077004680606025
0.29724221478446
-0.00080516861198809
0.29738572448595
-0.00083897274724863
0.2975348517408
-0.00087101352947145
0.29768897651168
-0.0008991226829354
0.29784737618566
-0.00092258546121265
0.29800918733378
-0.00094117854855554
0.29817447104247
-0.0009605584072285
0.29834379484524
-0.00098472134804493
0.29851966615419
-0.0010244494985819
0.29870410973869
-0.0010781452647253
0.29890114606919
-0.0011555524290571
0.29911111637482
-0.0012377674069771
0.299337581223
-0.0013395839864414
0.29957571019321
-0.0014175495557433
-0.0015156981048879
0.29982964878637
0.27939611313438
-3.4074292215381e-05
0.27941080890335
-0.00010220891234972
0.27943581642488
-0.00017321388128568
0.27947164028915
-0.00024691960099529
0.27951849442991
-0.00032150211608448
0.27957627553404
-0.00039497950571702
0.27964467501122
-0.00046602608304404
0.27972325237561
-0.00053380786425748
0.27981146901498
-0.0005977378387909
0.27990873779427
-0.00065761550223673
0.28001446686127
-0.00071363572939755
0.28012808683365
-0.00076615152905331
0.28024904882668
-0.00081528061273593
0.28037688019857
-0.00086121291673979
0.28051121590971
-0.00090438254086051
0.28065185346639
-0.00094580619165431
0.2807985854086
-0.00098570471170853
0.28095113549532
-0.0010235636379739
0.28110888607405
-0.0010568732829036
0.28127121194819
-0.0010849113563313
0.28143738186746
-0.001107348488478
0.28160757110219
-0.001130747662572
0.28178222761023
-0.0011593778765616
0.28196357071501
-0.0012057926240085
0.28215304569668
-0.0012676202670921
0.28235425745205
-0.0013567642054612
0.28256704523055
-0.0014505552067049
0.28279520248144
-0.0015677412586528
0.28303375756284
-0.0016561046579217
-0.0017700496396744
0.28328810907532
0.26371508782026
-3.8952692686774e-05
0.26372981832055
-0.00011693944410206
0.26375493311446
-0.0001983287065328
0.26379098847236
-0.0002829749897706
0.2638382342838
-0.00036874795769729
0.26389659843733
-0.000453343688696
0.26396578655341
-0.00053521422772009
0.26404536305036
-0.00061338438902149
0.26413479592986
-0.00068717074515852
0.26423350469114
-0.00075632428955985
0.26434089437688
-0.00082102544020747
0.26445638966354
-0.0008816468399711
0.26457944294367
-0.00093833391617689
0.26470959965325
-0.00099136964888821
0.2648465215618
-0.0010413044711205
0.26499003391931
-0.0010893185702467
0.26513994441773
-0.0011356152305067
0.26529600132396
-0.0011796205641189
0.26545761852918
-0.0012184905074877
0.26562423617918
-0.0012515290254265
0.26579516186579
-0.0012782741938166
0.265970603933
-0.0013061897484215
0.26615092808344
-0.0013397020454304
0.26633826919476
-0.0013931337538513
0.26653383695786
-0.001463188048657
0.26674113062127
-0.0015640578875608
0.26695967747147
-0.0016691020756723
0.2671933530218
-0.0018014168277524
0.26743672313596
-0.0018994747902886
-0.0020291129368358
0.26769578641352
0.24891413666703
-4.3796696352669e-05
0.24892879924546
-0.00013160205025516
0.24895384869347
-0.00022337818210878
0.24898989433215
-0.00031902065562311
0.24903723224616
-0.0004160858982151
0.24909581418105
-0.00051192564948155
0.24916536551581
-0.00060476558759298
0.24924547448026
-0.00069349337789142
0.24933563062957
-0.00077732691804572
0.24943526549845
-0.0008559591812896
0.24954378743541
-0.00092954739912302
0.24966062109755
-0.0009984805233539
0.24978521317047
-0.0010629260094814
0.24991710357952
-0.0011232600776509
0.25005596170217
-0.0011801626127117
0.25020165508763
-0.0012350119741062
0.25035405188531
-0.0012880120459152
0.25051296102307
-0.0013385297192227
0.25067781109947
-0.0013833406007185
0.25084805632478
-0.0014217742673378
0.25102301194848
-0.0014532298337898
0.25120300130424
-0.0014861791203867
0.25138846308261
-0.0015251638398249
0.25158166921627
-0.001586339903618
0.25178364210904
-0.0016651609575067
0.25199775714535
-0.0017781729401585
0.25222291254662
-0.0018942574932993
0.25246284519657
-0.0020413494940764
0.25271141509815
-0.0021480447077678
-0.0022928161235894
0.25297511826767
0.23494385635017
-4.8565510391706e-05
0.23495833169509
-0.00014607742001152
0.23498311602259
-0.00024816253430785
0.2350188696422
-0.00035477429961516
0.23506592686881
-0.0004631431486654
0.23512427273397
-0.00057027153798555
0.23519366057022
-0.00067415344653495
0.23527370608713
-0.00077353891693435
0.2353639176886
-0.00086753854092254
0.23546373598317
-0.0009557774966582
0.23557257870595
-0.0010383901419487
0.23568988452572
-0.0011157863625547
0.23581511307676
-0.0011881545791933
0.23594782087056
-0.0012559678895585
0.23608770687886
-0.0013200486384137
0.23623469487352
-0.0013819999856832
0.23638871610231
-0.0014420332910144
0.23654963372291
-0.0014994473557704
0.23671689903594
-0.0015506059292047
0.23689000873791
-0.0015948839845244
0.23706834218517
-0.0016315632959076
0.23725235338844
-0.0016701903384202
0.23744252682699
-0.0017153372929069
0.23764112916243
-0.00178494225361
0.23784885448958
-0.0018728862990786
0.23806882758804
-0.0019981460531601
0.23829927471252
-0.0021247046322822
0.2385440409629
-0.0022861157588648
0.23879625706807
-0.0024002608268714
-0.002560212622647
0.23906365355204
0.22175761875621
-5.3214497590231e-05
0.22177177330332
-0.0001602319889767
0.22179606633982
-0.00027245559255986
0.22183120511746
-0.00038991309875201
0.22187756379438
-0.00050950184662689
0.22193515810291
-0.00062786586717167
0.22200377114556
-0.00074276650928446
0.22208304563719
-0.00085281342822649
0.22217251932387
-0.00095701224665902
0.22227166327113
-0.0010549214624886
0.22237991665182
-0.0011466435405529
0.22249673339451
-0.0012326031226686
0.22262159453784
-0.0013130157392829
0.22275409392994
-0.0013884672979629
0.22289397576836
-0.0014599304925154
0.22304120826797
-0.0015292325005759
0.22319576072785
-0.0015965857656288
0.22335755451356
-0.0016612411559127
0.22352612928158
-0.001719180711206
0.223701108344
-0.0017698630607317
0.22388197176761
-0.0018124267329628
0.22406922094423
-0.0018574395283934
0.22426325961426
-0.0019093759760668
0.22446623219591
-0.0019879148483891
0.22467860402555
-0.0020852581417017
0.22490345749759
-0.0022229995382633
0.22513875328862
-0.002360000436301
0.22538871662723
-0.0025360791103491
0.22564586216229
-0.002657406374335
-0.0028334617938904
0.22591911132007
0.20931141591952
-5.7698485791392e-05
0.20932511065361
-0.00017392674256254
0.20934867908169
-0.00029602404006876
0.20938286836142
-0.000424102397729
0.20942809039996
-0.00055472390405878
0.2094843931149
-0.00068416860073496
0.20955158734562
-0.0008099607581856
0.20962935022986
-0.00093057633033978
0.20971726077195
-0.0010449228061228
0.20981482757438
-0.001152488281925
0.20992151467336
-0.0012533306560092
0.21003679488058
-0.0013478833459887
0.21016017936587
-0.0014364002401085
0.21029131220169
-0.0015196001489517
0.21042999338447
-0.0015986116899343
0.21057623649704
-0.001675475627449
0.2107300499394
-0.0017503992217985
0.21089142459501
-0.0018226158250614
0.21106001511133
-0.0018877712406489
0.21123560141166
-0.0019454493739964
0.21141777630746
-0.0019946016413491
0.21160709369247
-0.002046756925873
0.21180386561434
-0.0021061479101464
0.21201014997992
-0.0021941992261315
0.2122262235935
-0.0023013317672502
0.21245521578004
-0.0024519917367778
0.21269490422743
-0.0025996888955016
0.21294986143932
-0.0027910363338709
0.21321213331239
-0.0029196782585499
-0.0031128269646789
0.21349149847112
0.19756371227694
-6.1974249308815e-05
0.19757681485157
-0.00018702933454905
0.19759943240685
-0.0003186416126736
0.19763234655726
-0.00045701656537592
0.19767600087888
-0.00059837824263139
0.19773047508518
-0.00073864282380903
0.1977956126826
-0.00087509837205099
0.19787112776015
-0.001006091424116
0.19795664055256
-0.0011304356143803
0.19805169938223
-0.0012475471271892
0.19815580115432
-0.001357432443254
0.19826844925662
-0.0014605314631676
0.19838919713439
-0.0015571481323151
0.19851774432096
-0.0016481473496687
0.19865395180043
-0.0017348191830992
0.19879788508836
-0.0018194089288162
0.19894960820653
-0.0019021223529789
0.19910919016554
-0.0019821977968493
0.19927640916898
-0.0020549902564846
0.19945119991852
-0.0021202401357524
0.199633286904
-0.0021766886387133
0.19982331172165
-0.0022367817552748
0.20002154770437
-0.0023043839043607
0.20023000970166
-0.0024026612348283
0.2004487866524
-0.0025201087291914
0.2006810178768
-0.0026842229723187
0.20092424317001
-0.0028429141996522
0.20118329047103
-0.0030500836456122
0.20144982251235
-0.0031862103101078
-0.0033973191699618
0.20173431470657
0.18647530561759
-6.6002511823883e-05
0.18648769309042
-0.00019941682305883
0.18650915241179
-0.00034010094974652
0.18654048958948
-0.00048835375874235
0.1865821734841
-0.00064006215272712
0.18663431241642
-0.00079078177151037
0.18669678392255
-0.00093756989332236
0.18676934082777
-0.0010786483443577
0.18685164761812
-0.0012127424194393
0.18694329698808
-0.0013391965117115
0.18704382725439
-0.00145796272379
0.18715278216827
-0.0015694863910852
0.18726976554097
-0.0016741315186912
0.18739453519499
-0.001772917017166
0.18752701781838
-0.0018673018195928
0.18766733236836
-0.0019597234916876
0.18781560824218
-0.0020503982393139
0.18797198825871
-0.0021385778256909
0.18813638515381
-0.0022193871635449
0.18830887566558
-0.0022927306592905
0.18848934624426
-0.002357159228826
0.18867853228051
-0.0024259678028005
0.18887672517192
-0.0025025768067471
0.18908591143819
-0.0026118475119511
0.18930602480947
-0.0027402221110524
0.18954019087135
-0.0029183890446671
0.18978571690184
-0.0030884402403718
0.19004763679286
-0.003312003546578
0.19031729967773
-0.003455873204437
-0.0036858561867098
0.19060583668429
0.17600919640903
-6.9750174414733e-05
0.17602076176702
-0.00021098219536466
0.17604088112581
-0.00036022032291039
0.17607037480365
-0.00051784745097739
0.17610973037203
-0.00067941773537354
0.17615908171258
-0.00084013312628019
0.17621833898541
-0.0009968271801864
0.17628729484207
-0.0011476042149788
0.17636566106328
-0.0012911086543876
0.17645307716919
-0.0014266126312654
0.17654912831711
-0.0015540138850839
0.17665340335243
-0.001673761439667
0.17676555726911
-0.0017862854483474
0.17688540523244
-0.0018927649933405
0.17701294052863
-0.0019948371283134
0.17714834161558
-0.0020951245910206
0.17729181521151
-0.0021938718472989
0.17744358310778
-0.0022903457338303
0.17760370455127
-0.0023795086185625
0.17777238064387
-0.0024614067632154
0.17794968965115
-0.0025344682470977
0.17813642567615
-0.0026127038385791
0.17833297665834
-0.0026991277993872
0.17854124834166
-0.0028201192055197
0.17876111021096
-0.0029600839903104
0.17899563152789
-0.0031529103713547
0.17924192123441
-0.0033347299563608
0.17950523968428
-0.0035753220056067
0.17977667544406
-0.0037273089728913
-0.0039771491381244
0.18006796838614
0.16613046283475
-7.3191041658497e-05
0.16614112119903
-0.00022164057288866
0.16615975242671
-0.00037885156390894
0.16618718118642
-0.00054527622404462
0.16622390722052
-0.00071614378270869
0.16627008802328
-0.00088631394224671
0.16632566659773
-0.0010524057676628
0.16639047413278
-0.001212411763008
0.16646426303806
-0.0013648975724222
0.16654672086176
-0.0015090704676583
0.16663748172519
-0.0016447747609636
0.16673618413892
-0.0017724638657716
0.16684253832366
-0.0018926396452322
0.16695641878558
-0.0020066454673193
0.16707788340536
-0.0021163017598906
0.16720717251724
-0.0022244137145876
0.16734457111375
-0.0023312704552088
0.16749039062682
-0.0024361652581218
0.16764483492113
-0.0025339529237567
0.16780823153057
-0.0026248033833063
0.16798084672327
-0.0027070834500787
0.16816351107986
-0.0027953682051712
0.16835675743922
-0.0028923741683618
0.16856233462018
-0.0030256963958022
0.16878020043492
-0.0031779498139891
0.1690132399669
-0.0033859499119919
0.16925854140028
-0.0035800313980444
0.16952158573394
-0.0038383663472258
0.16979325792703
-0.0039989811734775
-0.0042697327227578
0.17008584150356
0.15680614362807
-7.6305991373962e-05
0.15681583489943
-0.00023133185662288
0.15683286747106
-0.00039588414794512
0.15685806204569
-0.00057047081106393
0.15689192294633
-0.0007500046955613
0.15693462680858
-0.00092901781661647
0.15698614684086
-0.0011039258118187
0.15704635172469
-0.0012726166585771
0.15711503699498
-0.0014335828541863
0.15719193531575
-0.0015859687997664
0.15727673103604
-0.0017295704923553
0.15736911443358
-0.0018648472743095
0.15746885149527
-0.0019923767177089
0.15757587172331
-0.0021136657060848
0.15769028979231
-0.0022307198393931
0.15781240314881
-0.0023465270814996
0.15794257321928
-0.0024614405358197
0.15808121086119
-0.0025748029100007
0.15822866074312
-0.0026814028153035
0.15838538673993
-0.0027815293894638
0.15855181382939
-0.0028735105484577
0.15872881936886
-0.0029723737531898
0.1589170483802
-0.0030806031877627
0.15911811151536
-0.0032267595385963
0.15933210129817
-0.0033919396039484
0.1595616726417
-0.0036155212622597
0.15980411038492
-0.00382246914758
0.16006500150947
-0.0040992574776951
0.16033518753282
-0.0042691672023733
-0.0045621334630729
0.16062758826707
0.14800512872287
-7.9083795313908e-05
0.14801381522159
-0.00024001836717674
0.14802917687473
-0.0004112458128515
0.14805202141862
-0.00059331536652786
0.14808285114159
-0.00078083442974616
0.14812185609326
-0.00096802277920465
0.14816903686677
-0.0011511065958229
0.14822429715624
-0.0013278769582086
0.1482874737385
-0.0014967594461768
0.14835834192552
-0.0016568369962534
0.14843663568911
-0.0018078642650666
0.14852209892584
-0.0019503105200084
0.14861455551515
-0.0020848333157339
0.14871398498593
-0.0022130951855064
0.14882054843002
-0.0023372832919112
0.14893459064998
-0.0024605693097959
0.14905654743816
-0.002583397332084
0.14918693653303
-0.0027051920127557
0.14932624247732
-0.002820708767116
0.14947506058139
-0.0029303475007231
0.14963393637747
-0.0030323863512124
0.14980378076945
-0.0031422181513448
0.14998528897591
-0.0032621113997858
0.15017999006725
-0.0034214606349022
0.15038807255308
-0.0036000220941034
0.1506120915412
-0.0038395402541121
0.15084955127718
-0.004059928886755
0.1511062798678
-0.004355986071084
0.1513728991362
-0.0045357864733044
-0.004852784161895
0.15166354983208
0.13969805424052
-8.1520786988914e-05
0.13970572143232
-0.00024768557116523
0.13971937642201
-0.00042490081456982
0.1397398071306
-0.00061374608664925
0.13976750750738
-0.00080853481733178
0.13980267561143
-0.0010031908933904
0.13984533638726
-0.0011937673810158
0.13989542772425
-0.0013779683039014
0.13995282381469
-0.0015541555446127
0.14001733532644
-0.0017213485155124
0.14008873991529
-0.0018792688609084
0.14016683559509
-0.0020284062065173
0.14025150834859
-0.0021695060756316
0.14034278317897
-0.0023043700221506
0.14044085455962
-0.0024353546786122
0.14054609864459
-0.0025658134007066
0.1406590243693
-0.0026963230624751
0.14078026541657
-0.0028264330654871
0.14091045493931
-0.0029508982949123
0.14105030462889
-0.003070197194937
0.14120043485667
-0.0031825165830095
0.14136174294905
-0.0033035262470897
0.1415348948112
-0.0034352632645181
0.14172139733678
-0.0036079631622433
0.14192144531936
-0.0038000700775814
0.14213783763414
-0.0040559325689836
0.14236804454364
-0.0042901357956391
0.14261865879021
-0.0046066003165716
0.14287975290117
-0.0047968805831324
-0.0051396887114708
0.14316665745152
0.13185720294681
-8.3619016684626e-05
0.13186385607473
-0.00025433871386017
0.13187580389842
-0.00043684865300294
0.13189380682902
-0.00063174903113265
0.13191834477336
-0.00083307277431341
0.13194961738837
-0.0010344635198269
0.13198767099066
-0.0012318209934645
0.13203247766912
-0.00142277499142
0.13208394634434
-0.0016056242278299
0.13214191504627
-0.0017793172246575
0.13220619754178
-0.0019435513629355
0.13227664456438
-0.0020988532351849
0.13235320739979
-0.0022460689167234
0.1324359497887
-0.0023871124165389
0.13252508220451
-0.002524487099657
0.13262098986316
-0.0026617210644583
0.13272425834566
-0.0027995915497837
0.13283564662631
-0.0029378213506806
0.13295595565323
-0.0030712073259018
0.13308597801974
-0.0032002195649894
0.133226348636
-0.0033228872020547
0.13337786289554
-0.003455040508576
0.1335410746089
-0.0035984749788027
0.13371750843482
-0.0037843969880085
0.13390734593546
-0.0039899075769202
0.1341139151885
-0.0042625018196161
0.13433476714053
-0.0045109877443266
0.13457738641211
-0.0048492195842706
0.13483181271081
-0.0050513068780849
-0.0054212180866886
0.13511334208932
0.12445641147934
-8.5384173926363e-05
0.12446207057562
-0.00025999783178189
0.12447234144043
-0.00044711954004784
0.1244879478201
-0.00064735543200933
0.12450934815455
-0.00085447312825835
0.12453674015878
-0.0010618555417328
0.12457018741306
-0.001265268263615
0.12460969426043
-0.0014622818531187
0.12465520251387
-0.0016511324941936
0.12470657168975
-0.0018306864124096
0.12476364543665
-0.0020006251208354
0.12482632580106
-0.0021615336100257
0.12489462777736
-0.0023143709029867
0.12496863827571
-0.0024611229245876
0.12504856382785
-0.0026044126612143
0.12513477600265
-0.002747933248479
0.12522794986827
-0.0028927654242988
0.12532898124414
-0.0030388527350746
0.12543887065872
-0.0031810967484361
0.12555843566957
-0.0033197845830946
0.12568827755795
-0.003452729096742
0.12582894090838
-0.0035957038642055
0.12598086268755
-0.0037503967618514
0.12614551407151
-0.0039490483744337
0.12632325306077
-0.0041676465671324
0.12651790485304
-0.0044571536113663
0.12672739447674
-0.004720477366248
0.12696031245487
-0.005082137559934
0.12720702671996
-0.0052980211409253
-0.0056976518245688
0.12748346045914
0.11747099029315
-8.6830715072252e-05
0.11747569007406
-0.00026469764721207
0.1174843396044
-0.0004557691063382
0.1174976127297
-0.0006606285923204
0.11751594639188
-0.00087280682344488
0.11753953600979
-0.0010854451904155
0.11756845933654
-0.0012941916189562
0.11760274590537
-0.0014965684486627
0.11764236486121
-0.0016907514751667
0.11768719260728
-0.001875514182402
0.11773710041142
-0.002050532947961
0.11779203953389
-0.002216472754839
0.11785208456122
-0.0023744159521659
0.11791734307349
-0.0025263814583735
0.11798800362011
-0.0026750732290429
0.11806439398071
-0.002824323629987
0.11814726306186
-0.0029756345259711
0.11823761989338
-0.0031292095865879
0.11833668093851
-0.0032801578128451
0.11844522811981
-0.0034283317826894
0.11856386642822
-0.0035713674222221
0.11869275555094
-0.0037245930024525
0.11883240359132
-0.0038900448160742
0.11898402379552
-0.0041006685905834
0.11914857888946
-0.0043322016711215
0.11933013108951
-0.0046387058194838
0.11952682767855
-0.0049171739617046
0.11974891300599
-0.0053042228927384
0.11998383859097
-0.0055329467314072
-0.0059733325884614
0.12025951934724
0.11087765414118
-8.7999999808621e-05
0.11088146865773
-0.00026851221604651
0.11088858553037
-0.00046288603338212
0.110899615797
-0.00067165891243339
0.11091498717354
-0.00088817825131305
0.11093489863781
-0.0011053567035859
0.11095943551353
-0.0013187285412533
0.1109886473247
-0.0015257803044977
0.11102253200023
-0.001724636193786
0.11106099043414
-0.0019139726582745
0.11110391102299
-0.0020934535778847
0.1111512726645
-0.0022638344368548
0.11120319295097
-0.0024263362786421
0.11125980107626
-0.0025829896233537
0.11132128459039
-0.0027365567824554
0.11138794047033
-0.0028909795488793
0.11146057052089
-0.0030482646148955
0.11154024822394
-0.0032088873273683
0.11162837494723
-0.0033682845727779
0.11172563135019
-0.0035255882210093
0.11183267573928
-0.0036784118448438
0.11194913022077
-0.0038410475154459
0.1120759433402
-0.0040168579646101
0.1122135778892
-0.004238303166338
0.11236465791082
-0.0044832817169343
0.11253207385238
-0.0048061217827407
0.11271645798407
-0.0051015581127318
0.11292683811651
-0.0055146030430469
0.11314541672628
-0.0057515253588176
-0.0062495234625589
0.11342160757883
0.10465441826486
-8.8952356328412e-05
0.10465750129858
-0.00027159532084722
0.1046632193077
-0.00046860411498412
0.10467212708598
-0.00068056676203273
0.10468467319872
-0.00090072443321303
0.10470106518556
-0.0011217487572454
0.10472137925678
-0.0013390426771966
0.10474567925568
-0.0015500803664388
0.10477400448288
-0.0017529614827863
0.10480630376753
-0.0019462720038125
0.10484249025991
-0.0021296401305484
0.10488255560979
-0.0023038998465344
0.10492664306665
-0.0024704237949697
0.10497490149774
-0.0026312481135025
0.10502749123545
-0.0027891465788934
0.10508463127205
-0.0029481196436345
0.10514710607303
-0.0031107394733975
0.10521603972941
-0.0032778210402031
0.10529308449778
-0.0034453293962438
0.10537899904045
-0.0036115028167059
0.10547467325934
-0.003774086114292
0.10557909044072
-0.0039454647442678
0.10569371459924
-0.0041314821674536
0.10581718277065
-0.0043617713787505
0.10595514665402
-0.0046212456381648
0.10610572858633
-0.0049567037494868
0.10627882195395
-0.0052746515117936
0.10647409688678
-0.0057098780051284
0.10668993505888
-0.0059673635598158
-0.0065050779093439
0.10694548947019
0.098780409935244
-8.9644097792921e-05
0.098782911787248
-0.00027409725622195
0.098787322396329
-0.00047301480805529
0.098794243516551
-0.00068748796501326
0.098804159870614
-0.00091064086814692
0.098817320653046
-0.001134909618729
0.098833776107113
-0.0013554982087888
0.098853541760373
-0.0015698460962185
0.098876678218021
-0.0017760980162798
0.09890320494508
-0.001972798806441
0.098933063993019
-0.0021594992538585
0.098966231472104
-0.0023370674009782
0.099002874014863
-0.0025070664129342
0.099043240306963
-0.0026716144807251
0.099087568331961
-0.002833474678651
0.099135990074444
-0.0029965414604896
0.099189061498393
-0.0031638109708426
0.09924768316777
-0.0033364427818981
0.099313646403646
-0.0035112927023574
0.099388117015405
-0.0036859734959383
0.099472722462874
-0.0038586916253896
0.09956639486854
-0.0040391372093144
0.09967106419887
-0.0042361515525032
0.099783388618878
-0.0044740958491002
0.099911309194357
-0.0047491662595849
0.10004594266173
-0.0050913372584418
0.10020932237848
-0.0054380312660702
0.10037254958781
-0.0058731052497051
0.100591549224
-0.0061863632323705
0.10084369250976
-0.0067572212389336
0.39431826359403
0.004633635010409
0.38984597377242
0.0044722897993636
0.38553760942869
0.0043083643216749
0.38139574671684
0.004141862689677
0.37742305088898
0.0039726958055248
0.37362233336884
0.0038007174974755
0.36999656767755
0.003625765668348
0.36654885702416
0.0034477106300603
0.36328238527711
0.0032664717234358
0.36020036959493
0.0030820156581719
0.35730601922461
0.0028943503460513
0.3546024924175
0.0027035267824794
0.35209284227348
0.002509650119159
0.34977996318875
0.0023128790595345
0.3476665667367
0.0021133964266817
0.3457551988289
0.0019113678821412
0.34404827312786
0.0017069256752667
0.34254806804876
0.0015002050530801
0.34125666054413
0.0012914074785331
0.34017582588602
0.0010808346317942
0.33930699122511
0.00086883463456671
0.33865129426615
0.00065569693240468
0.33820971002042
0.00044158421914898
0.33798313035765
0.00022657963596901
0.33797177062673
1.1359704102581e-05
0.3381795320755
-0.00020776147582524
0.33860631031135
-0.00042677826292968
0.339252178857
-0.00064586857296638
0.3401163284463
-0.00086414961663628
0.3411968026151
-0.0010804741963418
0.34249060479963
-0.0012938022120423
0.3439940530751