/*--------------------------------*- C++ -*----------------------------------*\
| =========                 |                                                 |
| \\      /  F ield         | OpenFOAM: The Open Source CFD Toolbox           |
|  \\    /   O peration     | Version:  2112                                  |
|   \\  /    A nd           | Website:  www.openfoam.com                      |
|    \\/     M anipulation  |                                                 |
\*---------------------------------------------------------------------------*/
FoamFile
{
    version     2.0;
    format      ascii;
    arch        "LSB;label=32;scalar=64";
    class       surfaceScalarField;
    location    "12.3";
    object      phi;
}
// * * * * * * * * * * * * * * * * * * * * * * * * * * * * * * * * * * * * * //

dimensions      [0 3 -1 0 0 0 0];

oriented        oriented;

internalField   nonuniform List<scalar> 
43645
(
0.39512374588396
-4.8727986798541e-06
0.39513822352131
-1.4477611826915e-05
0.39516225176106
-2.4028212138623e-05
0.3951957867993
-3.3535009720474e-05
0.39523876972715
-4.2982899213841e-05
0.39529113328417
-5.236352867155e-05
0.39535281072605
-6.1677414100579e-05
0.39542373287009
-7.0922116875276e-05
0.39550381599067
-8.0083094145848e-05
0.3955929600115
-8.9143995087981e-05
0.39569104904318
-9.8089006687618e-05
0.39579796610448
-0.00010691703700272
0.39591358912937
-0.00011562300134847
0.3960378045832
-0.00012421543094275
0.39617048023493
-0.00013267562955324
0.39631149160316
-0.00014101134666476
0.39646066706011
-0.00014917543602107
0.39661786208686
-0.00015719500634419
0.39678284461749
-0.000164982510769
0.39695547181448
-0.00017262717754902
0.39713542702262
-0.00017995518915139
0.39732262228614
-0.00018719524482236
0.3975165908249
-0.00019396852039956
0.39771740613649
-0.00020081529342551
0.39792428877475
-0.000206882620332
0.39813771251401
-0.00021342372141046
0.3983562127932
-0.00021850026149169
0.39858121679033
-0.00022500397967474
0.3988097272433
-0.00022851043593736
-0.00023563171794316
0.39904535897854
0.37294710495939
-9.4229792495395e-06
0.37296072849955
-2.8101110984487e-05
0.37298350983647
-4.6809507325803e-05
0.37301541493888
-6.5440070439961e-05
0.37305638963391
-8.3957553128777e-05
0.37310637348183
-0.00010234733621171
0.37316530967756
-0.00012061357036119
0.37323314252015
-0.00013875492089162
0.3733098048951
-0.00015674543151822
0.37339521471683
-0.00017455378014877
0.37348927312075
-0.00019214737495825
0.37359187739592
-0.00020952127744999
0.37370291660307
-0.00022666217476075
0.37382228621537
-0.0002435850103837
0.37394986287596
-0.00026025225822296
0.37408553264625
-0.00027668108581817
0.37422913726907
-0.00029278002854621
0.37438054802794
-0.00030860573556895
0.3745395503696
-0.00032398482349833
0.37470601862083
-0.00033909540036417
0.37487965287554
-0.00035358941600684
0.37506037925197
-0.00036792159375664
0.37524774570612
-0.00038133494749331
0.37544183647884
-0.00039490603930656
0.37564188906936
-0.00040693518431418
0.37584838576486
-0.00041992039048077
0.3760598904343
-0.00043000490471585
0.37627783524258
-0.00044294876208644
0.37649928407938
-0.00044995924785755
-0.00046422102524533
0.37672787341221
0.35201537011223
-1.3895526029804e-05
0.35202871879132
-4.1449747140312e-05
0.35205095513492
-6.9045807901777e-05
0.35208206058129
-9.6545474285827e-05
0.352121993957
-0.00012389088721556
0.35217070344277
-0.00015105678133168
0.3522281415211
-0.00017805160915702
0.3522942676976
-0.00020488105889677
0.35236903676094
-0.0002315144575379
0.35245239225398
-0.00025790923692633
0.352544259332
-0.00028401441788778
0.35264455453337
-0.00030981644477826
0.35275317944007
-0.00033528704855959
0.35287003869332
-0.00036044423170229
0.35299501614711
-0.00038522968114341
0.35312800997814
-0.0004096748867996
0.35326887569327
-0.00043364571456076
0.35341750733802
-0.00045723735185805
0.35357370822277
-0.00048018568055655
0.35373738065699
-0.00050276780734515
0.35390823364628
-0.00052444237864431
0.35408622294059
-0.00054591086168821
0.35427088517214
-0.0005659971530734
0.35446234644985
-0.00058636729114208
0.35465979867396
-0.00060438738279786
0.3548638041243
-0.00062392581514236
0.35507280917177
-0.00063900992662128
0.35528841347998
-0.00065855304490934
0.35550739946729
-0.00066894521071805
-0.00069056259036573
0.35573374105781
0.33225842716584
-1.8278696407557e-05
0.33227153041433
-5.4552957836331e-05
0.33229336306391
-9.0878419531153e-05
0.3323239110297
-0.00012709340251506
0.33236314024173
-0.00016312006244494
0.3324110071562
-0.00019892365980375
0.33246747572252
-0.00023452014046871
0.33253252447199
-0.00026992977424946
0.33260613537039
-0.00030512532287631
0.33268828383681
-0.00034005767119703
0.33277892490037
-0.00037465545037933
0.332877999109
-0.00040889062324762
0.33298542338245
-0.0004427112928955
0.33310111360389
-0.00047613442487662
0.33322496201843
-0.00050907806838074
0.33335688191709
-0.00054159475888395
0.3334967453301
-0.00057350910182995
0.33364447537987
-0.00060496737645874
0.33379989652038
-0.00063560679658573
0.33396294734709
-0.00066581860997745
0.33413334490821
-0.0006948399162111
0.3343110844566
-0.00072365038674657
0.33449568147736
-0.00075059415088728
0.33468732062144
-0.00077800641235063
0.33488512318262
-0.00080218992135391
0.33508976927111
-0.00082857188095134
0.33529953558034
-0.000848776213308
0.33551628279875
-0.00087530024096266
0.33573640967386
-0.00088907206432973
-0.00091863464538065
0.33596448175127
0.31361036204961
-2.2583334365589e-05
0.31362325832432
-6.7449198935084e-05
0.31364476266284
-0.00011238272441361
0.31367487193668
-0.00015720264317857
0.31371356122037
-0.00020180931374208
0.31376079609867
-0.00024615850653122
0.31381655401969
-0.00029027803088949
0.31388083663079
-0.00033421235565954
0.31395365878391
-0.00037794744734587
0.31403503424224
-0.00042143310179632
0.31412495396647
-0.00046457514793453
0.31422338777302
-0.00050732440401195
0.31433027190183
-0.00054959539693761
0.31444553718322
-0.00059139968229174
0.31456908747568
-0.0006326283377949
0.31470085592338
-0.00067336318419768
0.31484073558984
-0.00071338874667646
0.31498868598307
-0.000752917748565
0.31514455760234
-0.00079147839534314
0.31530833445647
-0.00082959544390001
0.31547974364943
-0.00086624908940381
0.31565883106294
-0.00090273778059915
0.31584508653307
-0.00093684960162839
0.31603877066836
-0.00097169052821434
0.31623891757949
-0.0010023368131678
0.3164463587901
-0.0010360130720654
0.31665915830208
-0.0010615757057864
0.31687950535983
-0.0010956472792251
0.31710330863075
-0.0011128753164028
-0.0011511856244954
0.31733585962977
0.2960089267329
-2.6808178165283e-05
0.29602161563282
-8.0138067991232e-05
0.29604279317222
-0.00013356023299975
0.29607247054644
-0.00018687998698517
0.29611063496395
-0.00023997370156194
0.29615726364057
-0.00029278715416935
0.29621235031564
-0.0003453646778515
0.29627592373328
-0.00039778574597807
0.29634803690371
-0.00045006059139578
0.29642874804663
-0.0005021442191312
0.2965180900912
-0.00055391716788905
0.29661606771872
-0.00060530200769788
0.29672264120673
-0.00065616886204737
0.29683776095152
-0.00070651940489903
0.29696134676268
-0.00075621412763223
0.29709335731369
-0.00080537371446857
0.29723371230806
-0.00085374372105696
0.29738241565065
-0.00090162107161624
0.29753935011244
-0.00094841283818056
0.29770455492693
-0.00099480023973028
0.29787777146629
-0.0010394656105493
0.29805910786674
-0.0010840741629617
0.29824802734222
-0.0011257690593246
0.29844488277336
-0.0011685459415525
0.29864860968625
-0.0012060637084403
0.29886021900374
-0.0012476223717892
0.29907752877438
-0.0012788854587557
0.29930311164739
-0.0013212301346074
0.29953230746124
-0.0013420711132741
-0.0013901234945961
0.29977124534935
0.279395365199
-3.0938831480195e-05
0.27940780676078
-9.2579602603759e-05
0.27942859402082
-0.0001543474659805
0.2794577548087
-0.00021604074821223
0.27949529084228
-0.00027750970916558
0.27954119338619
-0.0003386896727645
0.27959547521894
-0.00039964648609803
0.27965819576456
-0.00046050626781552
0.27972945073033
-0.00052131553424856
0.27980934808746
-0.0005820415540777
0.27989796821243
-0.00064253727156648
0.27999535610095
-0.00070268987562768
0.28010150114421
-0.0007623138855787
0.28021637856827
-0.00082139680986533
0.28033992936084
-0.00087976490190195
0.28047214413192
-0.00093758846776977
0.28061297565591
-0.00099457522793092
0.28076248068405
-0.0010511260830214
0.28092058143347
-0.0011065135713985
0.28108738259793
-0.0011616013882021
0.2812626458559
-0.0012147288529171
0.28144655372047
-0.0012679820119898
0.28163854515995
-0.0013177604835141
0.28183908151595
-0.0013690822821721
0.28204699459304
-0.0014139767702819
0.28226350052498
-0.0014641282882786
0.28248615053702
-0.001501535455379
0.28271794776655
-0.0015530273486901
0.2829536096065
-0.0015777329383029
-0.001636710913808
0.28320019704172
0.26371422192702
-3.4951285343006e-05
0.26372634660085
-0.00010470425195508
0.26374663090781
-0.0001746317485665
0.26377512114798
-0.0002445309643403
0.26381183540669
-0.00031422394441264
0.26385678100864
-0.00038363525177304
0.26390999209747
-0.0004528575526839
0.26397156169699
-0.00052207584565312
0.26404163183622
-0.00059138565254853
0.26412036452638
-0.00066077422390328
0.26420789226887
-0.00073006499450641
0.26430430535671
-0.00079910294449024
0.2644096273708
-0.00086763588146248
0.26452386387425
-0.00093563329565231
0.26464698276371
-0.0010028837744115
0.26477901332067
-0.0010696190082336
0.26491994829631
-0.001135510187693
0.26506990581687
-0.0012010835880507
0.26522885539888
-0.0012654631384067
0.26539697756858
-0.0013297235431094
0.26557406205513
-0.0013918133250929
0.26576037816512
-0.0014542981076907
0.26595534656602
-0.0015127288704249
0.26615955289611
-0.001573288598257
0.2663717263362
-0.0016261501965703
0.26659331113456
-0.0016857130727305
0.26682158259056
-0.001729806897616
0.26706001128285
-0.0017914560272715
0.26730266151077
-0.0018203831530789
-0.0018916399036716
0.26755759051476
0.24891315665598
-3.8815231142702e-05
0.24892487468899
-0.00011642226363389
0.24894450933544
-0.00019426637380073
0.2489721267314
-0.00027214833934663
0.24900776273133
-0.00034985992390011
0.24905144226251
-0.00042731476293706
0.24910322256698
-0.0005046378377297
0.24916323229442
-0.00058208555413205
0.24923166226689
-0.00065981560670065
0.24930873153108
-0.00073784347025341
0.24939462828104
-0.00081596172730637
0.24948949222884
-0.00089396687559442
0.24959338583487
-0.00097152947147421
0.24970635026337
-0.0010485977085722
0.2498283861493
-0.0011249196453868
0.24995956797035
-0.0012008008146916
0.25009993545334
-0.0012758776566518
0.25024967613848
-0.0013508242594332
0.25040881503966
-0.0014246020263102
0.25057761839921
-0.0014985268895425
0.25075591332905
-0.0015701082421959
0.25094406784891
-0.0016424526148691
0.25114149409242
-0.0017101551015327
0.25134891624948
-0.0017807107428894
0.2515649689577
-0.0018422028925605
0.25179134234083
-0.0019120864435245
0.25202503848496
-0.0019635030295697
0.25227001974782
-0.0020364372780101
0.25251969274239
-0.0020700561360312
-0.0021550934228654
0.25278314627414
0.23494276929946
-4.2496952663877e-05
0.23495397942279
-0.00012763236797778
0.23497279816914
-0.00021308510126101
0.23499931222022
-0.00029866237172175
0.23503357601701
-0.00038412370239343
0.23507563303903
-0.00046937176695811
0.23512556463189
-0.00055456941306811
0.23518353601402
-0.00064005691907652
0.23524978792152
-0.00072606749752557
0.23532459785527
-0.00081265338769334
0.23540821189216
-0.00089957574843636
0.23550082200776
-0.00098657697579625
0.23560253352796
-0.0010732409768349
0.23571342766843
-0.001159491834551
0.23583354344394
-0.001245035406951
0.23596300611078
-0.0013302634678793
0.23610190927234
-0.001414780805072
0.23625051650217
-0.0014994314763547
0.23640891674145
-0.0015830022531407
0.23657747001794
-0.0016670801537345
0.23675605196433
-0.0017486901766737
0.23694513841085
-0.0018315390495698
0.23714414850422
-0.0019091651834001
0.23735395414682
-0.001990516373998
0.23757311497246
-0.0020613637069941
0.23780357700187
-0.0021425484616952
0.23804208750187
-0.002202013518572
0.23829310805095
-0.0022874578162268
0.23854940432732
-0.0023263524020803
-0.0024267858123984
0.238821096728
0.2217564346832
-4.5961830171383e-05
0.22176703171085
-0.00013822937899943
0.22178486209041
-0.00023091546424768
0.22181003289275
-0.00032383315762168
0.22184261709989
-0.00041670789341053
0.22188267686217
-0.00050943151332338
0.2219303177462
-0.00060221028155308
0.22198574125552
-0.00069548041308288
0.22204923770239
-0.00078956392949912
0.22212114268827
-0.00088455835891268
0.22220176082179
-0.00098019386774527
0.22229133754175
-0.0010761536817976
0.22239002410585
-0.0011719275274471
0.22249794478997
-0.0012674125054262
0.22261518236773
-0.0013622729719339
0.22274191646317
-0.0014569975507636
0.22287830180751
-0.001551166137297
0.22302468141516
-0.0016458110720704
0.22318121818854
-0.0017395390149878
0.22334836919924
-0.0018342311530379
0.22352607424108
-0.0019263952074802
0.22371491749084
-0.0020203822883721
0.22391435190461
-0.0021085995865298
0.22412538801096
-0.0022015524697238
0.22434655572263
-0.0022825314083424
0.22458003572889
-0.0023760284576232
0.22482238896935
-0.0024443667489748
0.22507854596272
-0.0025436147997045
0.2253407112135
-0.0025885176434835
-0.0027060294537485
0.22561995486498
0.20931014753561
-4.9177401827234e-05
0.20932002870027
-0.00014811052883031
0.20933670366134
-0.00024759041050787
0.20936029820205
-0.00034742768359145
0.20939090297805
-0.00044731265489168
0.20942859814614
-0.00054712666702764
0.20947351261395
-0.0006471247352496
0.20952588253674
-0.00074785032188059
0.20958604583331
-0.00084972721238796
0.20965439399179
-0.00095290650386338
0.20973128906641
-0.0010570889291842
0.20981702939142
-0.0011618939937837
0.20991181398559
-0.00126671210897
0.21001581143822
-0.0013714099455672
0.21012915313065
-0.0014756146522772
0.21025207381803
-0.0015799182262151
0.21038479742286
-0.0016838897305855
0.21052774449536
-0.0017887581331738
0.21068116565087
-0.0018929601594806
0.21084560944303
-0.0019986749343109
0.21102110505659
-0.0021018908105142
0.21120832807675
-0.0022076052980889
0.21140682182903
-0.0023070933287111
0.21161766991656
-0.002412400547223
0.21183951484398
-0.0025043763260626
0.21207457988951
-0.0026110934935027
0.2123195478712
-0.0026893347213404
0.21257942753519
-0.0028034944545758
0.21284645612793
-0.0028555462276436
-0.0029917994857309
0.21313222616918
0.19756237429314
-5.2115152535158e-05
0.19757144805195
-0.00015718427437743
0.19758681695417
-0.00026295929944297
0.19760862312774
-0.00036923384389115
0.19763697348053
-0.00047566299457315
0.19767196508636
-0.00058211825981033
0.19771374866075
-0.00068890829677749
0.19776259238141
-0.00079669402974082
0.19781887812868
-0.00090601294707511
0.19788304933498
-0.0010170776976558
0.19795552227066
-0.0011295618526134
0.1980366460929
-0.0012430178038445
0.19812666720916
-0.0013567332133562
0.19822579900402
-0.0014705417286507
0.19833422342957
-0.0015840390663586
0.19845223112888
-0.0016979259141775
0.19858011926365
-0.0018117778543339
0.19871838385202
-0.0019270227106398
0.19886737410124
-0.0020419503981452
0.1990277211479
-0.0021590219705198
0.19919957055404
-0.0022737402065559
0.19938366811626
-0.0023917028503165
0.19957970010056
-0.0025031253033658
0.19978877718831
-0.0026214776254223
0.20000976226856
-0.0027253613971008
0.20024477808273
-0.0028461092985504
0.20049092765632
-0.0029354842861623
0.200752792478
-0.0030653592677131
0.20102354119505
-0.0031262949366801
-0.0032826402731535
0.20131438199113
0.1864739135488
-5.4751320033187e-05
0.18648210552196
-0.00016537623541431
0.18649604233236
-0.00027689609766881
0.18651588061755
-0.00038907211687146
0.18654174167125
-0.00050152403616525
0.18657373759465
-0.00061411417111257
0.1866120383272
-0.00072720901736573
0.18665694042509
-0.00084159611567153
0.18670886490314
-0.00095793741332432
0.18676830195328
-0.0010765147359989
0.18683571694037
-0.0011969768280993
0.18691150627933
-0.0013188071312261
0.18699596107714
-0.001441187999811
0.18708933911701
-0.0015639197571976
0.18719187139972
-0.0016865713380064
0.18730390612439
-0.0018099606278559
0.18742581053648
-0.0019336822557163
0.18755815995981
-0.0020593721233619
0.18770139760456
-0.0021851880326075
0.18785624531651
-0.0023138696722953
0.18802296112662
-0.0024404560068496
0.18820237950386
-0.0025711212178693
0.1883943169524
-0.0026950627425974
0.18859996644019
-0.0028271271040287
0.18881834971231
-0.0029437446604151
0.18905164117431
-0.0030794007518844
0.18929719723037
-0.003181040333933
0.18955948763471
-0.0033276496640349
0.18983220219612
-0.0033990094905815
-0.0035766887020932
0.1901262506332
0.17600776584501
-5.7068394582356e-05
0.17601502065728
-0.00017263103640889
0.17602742893361
-0.00028930436262332
0.17604515975402
-0.00040680292585349
0.17606834661699
-0.00052471088777951
0.17609711429541
-0.0006428818381653
0.17613164879045
-0.00076174350113541
0.17617227036061
-0.00088221767454437
0.17621943292365
-0.0010050999651992
0.17627366660596
-0.001130748407128
0.17633547952282
-0.0012587897339203
0.17640531024182
-0.0013886378391713
0.17648349048858
-0.0015193682356816
0.17657031985996
-0.0016507491176814
0.1766660757144
-0.0017823271817505
0.17677116221749
-0.0019150471202789
0.17688601264184
-0.0020485326696477
0.17701128157864
-0.00218464104982
0.17714749928982
-0.0023214057337535
0.17729548555599
-0.0024618559285621
0.17745559910502
-0.0026005695463339
0.17762878609958
-0.0027443082030602
0.17781497087064
-0.0028812475046798
0.17801547981998
-0.0030276360445884
0.17822943932638
-0.0031577041584424
0.17845919565043
-0.0033091570677611
0.17870218415476
-0.0034240288304914
0.17896309842543
-0.0035885639272242
0.17923564149483
-0.0036715525529768
-0.0038721119973866
0.17953106479773
0.16612900920401
-5.905560868467e-05
0.16613529141119
-0.00017891323285267
0.16614610706833
-0.00030012000892445
0.16616163515371
-0.00042233100033818
0.16618201890376
-0.00054509462701098
0.16620739304382
-0.00066825596739489
0.1662379559547
-0.00079230640131383
0.16627404619809
-0.00091830790723248
0.16631614358576
-0.0010471973422894
0.16636481023787
-0.0011794150486551
0.16642058928705
-0.0013145687726437
0.1664839547612
-0.0014520033028402
0.16655527393501
-0.0015906873991308
0.1666348837713
-0.0017303589435784
0.16672310404579
-0.0018705474460083
0.16682039020761
-0.0020123332718577
0.16692723693088
-0.0021553793828977
0.1670443722191
-0.0023017763280855
0.16717240894627
-0.0024494424512529
0.16731226057247
-0.002601707545262
0.16746438482071
-0.0027526937854413
0.16762984031033
-0.0029097636837875
0.16780866151755
-0.0030600687034464
0.16800231299956
-0.0032212875184249
0.1682100347782
-0.0033654259293794
0.16843435090159
-0.0035334731837274
0.16867280050935
-0.0036624784312618
0.16893031428744
-0.0038460776986496
0.16920063298968
-0.0039418712490005
-0.0041667417166237
0.16949526271574
0.15680468210631
-6.07090154268e-05
0.1568099763155
-0.00018420743163023
0.15681916826756
-0.00030931195049756
0.15683244407626
-0.00043560679854911
0.15684995397992
-0.00056260452032858
0.15687183963676
-0.00069014161396289
0.15689830785201
-0.00081877460649202
0.15692970970161
-0.00094970974684374
0.15696654338025
-0.0010840310111386
0.15700939430976
-0.0012222659684186
0.15705883217656
-0.001364006629861
0.15711535867208
-0.0015085297887674
0.15717937020156
-0.0016546989191365
0.15725123529076
-0.0018022240232615
0.15733131085768
-0.001950623003528
0.15742009698923
-0.0021011193939825
0.15751814296406
-0.0022534253484807
0.15762624177872
-0.0024098751335564
0.15774508184339
-0.0025682825070316
0.15787566231136
-0.0027322880045185
0.15801853647617
-0.0028955679419499
0.15817487075544
-0.0030660979550793
0.15834481328039
-0.0032300112209219
0.15852996511548
-0.0034064393464361
0.15872969011034
-0.0035651509177099
0.15894668513098
-0.0037504681982457
0.15917861669515
-0.0038944099898066
0.15943064546462
-0.004098106462848
0.15969661817804
-0.0042078439575393
-0.0044582885001276
0.15998816496699
0.14800367313978
-6.2031215738445e-05
0.1480079834092
-0.00018851769068941
0.14801555257901
-0.00031688110995404
0.14802657109597
-0.00044662530530965
0.14804119352669
-0.00057722694114737
0.14805956534758
-0.00070851342520927
0.14808189769217
-0.00084110694179245
0.14810854807483
-0.00097636012048469
0.14814002538156
-0.0011155083091873
0.14817692924422
-0.0012591698225779
0.14821984720386
-0.0014069245812441
0.14826930012446
-0.0015579827011649
0.14832570674391
-0.0017111055305127
0.14838945988249
-0.001865977153741
0.14846094725348
-0.002022110366502
0.14854070508259
-0.0021808772150422
0.14862932905405
-0.0023420493120406
0.14872766592029
-0.0025082119919663
0.14883647075573
-0.0026770873349154
0.14895681670432
-0.0028526339457922
0.14908934637747
-0.0030280976082281
0.14923532510547
-0.0032120766766212
0.14939501377759
-0.0033896998872016
0.14957015065704
-0.0035815762205877
0.14976022802973
-0.0037552282857812
0.14996812245385
-0.0039583626183041
0.15019162329382
-0.0041179108263151
0.15043611044274
-0.0043425936087226
0.15069556881036
-0.0044673023223966
-0.0047443842043165
0.15098166451779
0.13969661664553
-6.3030591424917e-05
0.13969996478072
-0.00019186581491863
0.13970594175936
-0.00032285807773705
0.13971473949706
-0.00045542303255313
0.13972651410167
-0.00058900153590598
0.13974141187409
-0.00072341118834228
0.13975964458274
-0.0008593396418145
0.13978157016979
-0.00099828569945852
0.13980770059627
-0.0011416387281456
0.13983864020112
-0.0012901094202944
0.13987498581488
-0.0014432701882386
0.13991726843479
-0.0016002653144744
0.1399659227802
-0.0017597598694914
0.14002135752578
-0.0019214118928886
0.14008398523668
-0.002084738071047
0.14015436674265
-0.00225125871462
0.1402331365318
-0.0024208190949185
0.14032117933172
-0.0025962547856952
0.14041930924393
-0.0027752172412183
0.14052865598334
-0.0029619806795857
0.1406499460142
-0.0031493876339833
0.14078452837388
-0.0033466590317373
0.14093276859101
-0.0035379401005069
0.14109653865292
-0.0037453462793997
0.14127545352885
-0.0039341431594758
0.14147260120049
-0.0041555102884765
0.14168590126017
-0.0043312108852754
0.14192094815754
-0.004577640505861
0.14217178464618
-0.0047181388109784
-0.0050225366323907
0.14244993707469
0.13185579406016
-6.3719910216015e-05
0.13185821631695
-0.00019428805853836
0.1318626574822
-0.00032729922983902
0.13186930799929
-0.00046207353718938
0.13187832242651
-0.00059801595170908
0.13188984475268
-0.00073493350411442
0.13190408388826
-0.00087357876805668
0.13192139247194
-0.0010155942747245
0.13194227861917
-0.0011625248678102
0.1319673421032
-0.0013151728973888
0.13199718131065
-0.0014731093892775
0.13203232788572
-0.0016354118834221
0.13207322728134
-0.0018006592592214
0.13212029371348
-0.0019684783191745
0.13217396066634
-0.0021384050181496
0.13223479751939
-0.0023120955618927
0.13230347385095
-0.0024894954208192
0.13238088781799
-0.0026736687471813
0.13246791265504
-0.0028622420730297
0.13256570448591
-0.0030597725055931
0.13267507962206
-0.003258762765877
0.13279744215605
-0.003469021562171
0.13293326381826
-0.0036737617600795
0.13308452425229
-0.0038966067117464
0.13325093548799
-0.0041005543945958
0.13343580950047
-0.0043403843014144
0.13363720616916
-0.0045326075553799
0.13386114512956
-0.0048015794682679
0.13410159871387
-0.0049585923973897
-0.0052903837800406
0.13436944585981
0.12445504199121
-6.411554617424e-05
0.12445658539592
-0.00019583144468803
0.1244595672096
-0.00033028102449002
0.12446417307988
-0.00046667938928714
0.12447055441086
-0.00060439726593303
0.12447885117498
-0.00074323025300131
0.1244892655314
-0.00088399311074985
0.12450213794374
-0.0010284666746407
0.12451796497938
-0.0011783518921857
0.12453733268993
-0.0013345405975288
0.12456083480152
-0.0014966114911442
0.12458899554472
-0.0016635726173023
0.12462226858862
-0.0018339322941215
0.12466106259112
-0.0020072723127779
0.12470583077377
-0.0021831731920281
0.12475712861416
-0.0023633933935516
0.12481566306705
-0.0025480298651501
0.12488230727932
-0.0027403129510711
0.1249580098323
-0.0029379446180483
0.1250438963599
-0.0031456590257406
0.12514091288276
-0.0033557792820606
0.12525044280579
-0.0035785514794621
0.12537312975341
-0.0037964487031214
0.12551098044695
-0.0040344574019629
0.12566382831522
-0.0042534022609552
0.12583513315702
-0.0045116891426701
0.12602288867072
-0.0047203630697608
0.12623388149742
-0.0050125722964037
0.12646203485231
-0.0051867457537667
-0.0055471350561656
0.12671878612763
0.11746966671335
-6.4238456616505e-05
0.11747038983169
-0.00019655453448564
0.11747200832576
-0.00033189948888815
0.11747469461961
-0.0004693656542539
0.11747859766572
-0.000608300284835
0.11748385619059
-0.00074848875255426
0.11749066357845
-0.00089080047514984
0.11749934237106
-0.0010371454453911
0.11751036847616
-0.0011893779767846
0.11752430388291
-0.0013484759848102
0.11754172988128
-0.0015140374708361
0.11756315632874
-0.0016849990466073
0.1175890440502
-0.0018598199977977
0.11761978857348
-0.0020380168185037
0.11765586430984
-0.002219248911032
0.11769778976493
-0.0024053188314557
0.11774631519857
-0.0025965552818733
0.11780223879031
-0.0027962365262685
0.11786661910467
-0.0030023249164186
0.11794045616302
-0.0032194960689011
0.11802492784946
-0.0034402509543523
0.11812121132565
-0.0036748349428021
0.11823033799672
-0.0039055753628293
0.11835406015291
-0.0041581795484578
0.1184926707306
-0.0043920128306864
0.11864954258555
-0.0046685609914402
0.11882239922855
-0.004893219708107
0.11901876620197
-0.0052089392662023
0.11923095872586
-0.0053989382740979
-0.0057944169471406
0.11947824062194
0.11087636593108
-6.4119452961536e-05
0.11087634381273
-0.00019653237379406
0.11087671713264
-0.00033227276477653
0.11087763451036
-0.00047028298874561
0.11087924492014
-0.00060991065322465
0.11088168649144
-0.00075093028454223
0.11088513975996
-0.00089425370638991
0.11088990612618
-0.0010419117760282
0.11089643390787
-0.0011959057243172
0.11090525685847
-0.0013572989023051
0.11091693962081
-0.0015257202009149
0.11093197513324
-0.0017000345273276
0.11095082766872
-0.0018786725020366
0.11097387436414
-0.0020610634829886
0.1110016037215
-0.002246978237816
0.11103448023861
-0.0024381953182862
0.11107329577734
-0.0026353707908353
0.11111873359473
-0.0028416743144468
0.11117199864426
-0.0030555899376658
0.11123385896918
-0.003281356366639
0.11130588223824
-0.0035122741977863
0.11138872930399
-0.0037576819846585
0.11148426424536
-0.0040011102823773
0.11159321789652
-0.0042671331798334
0.11171738989609
-0.0045161848127065
0.11185887485567
-0.0048100459356063
0.11201698939403
-0.0050513342330813
0.1121986828944
-0.0053906327543989
0.11239169045059
-0.0055919458182932
-0.0060316929303584
0.11262896644885
0.10465314657755
-6.3800011894197e-05
0.10465248347859
-0.00019586921778605
0.10465173229444
-0.00033152152247612
0.10465103823521
-0.00046958887238322
0.1046505693955
-0.00060944175825727
0.10465045086327
-0.00075081169910946
0.10465085042622
-0.00089465321806389
0.10465203329691
-0.0010430945970388
0.10465440041349
-0.0011982727924807
0.10465845632885
-0.0013613547702299
0.10466475424341
-0.0015320180687562
0.10467378569637
-0.0017090659341506
0.10468602568028
-0.0018909124402711
0.10470184028154
-0.0020768780390367
0.10472171097715
-0.0022668488886563
0.10474603658543
-0.0024625208823747
0.10477561219438
-0.0026649463562517
0.10481099267384
-0.002877054751348
0.10485351015541
-0.0030981073779198
0.10490365382278
-0.0033314999944628
0.10496347812146
-0.0035720984589895
0.10503287598898
-0.0038270798173023
0.1051150851649
-0.0040833194260134
0.10520863446995
-0.0043606824553541
0.10531884182747
-0.0046263921432847
0.10544246703335
-0.0049336711173133
0.10558721484008
-0.0051960820179107
0.10575224122784
-0.0055556591218467
0.10593748535035
-0.0057771899204046
-0.0062465637627038
0.10615235620833
0.098779193776055
-6.3275458090906e-05
0.098778009659039
-0.00019468503404356
0.098776212212096
-0.00032972400834882
0.098774037276695
-0.0004674138709183
0.098771727143698
-0.00060713156089608
0.098769285948084
-0.00074837044085626
0.098766958073993
-0.00089232528286408
0.098764955975254
-0.0010410924383498
0.098763605868895
-0.0011969226270573
0.098763364200901
-0.0013611130437511
0.098764735054735
-0.0015333888645921
0.098768196094903
-0.0017125269166505
0.098774234121264
-0.0018969504093697
0.098783235275065
-0.0020858791359209
0.098795687555099
-0.0022793011123162
0.098811961127401
-0.0024787943988676
0.098832820910684
-0.0026858060846654
0.098858731702825
-0.0029029654897856
0.098891071026416
-0.0031304466496552
0.098930156562746
-0.0033705854812687
0.098978378861036
-0.0036203207108874
0.099035029853641
-0.003883730766908
0.099104644454679
-0.0041529339877448
0.09918351382211
-0.0044395517869031
0.099281272673722
-0.0047241509624209
0.099386469828669
-0.0050388682430068
0.099520544065588
-0.0053301562284344
0.099655811463807
-0.0056909264949656
0.099837129619424
-0.0059585080494709
0.10006053794994
-0.0064699720604856
0.39438430500389
0.004661053991947
0.38988188815142
0.0045024168693353
0.38554260740331
0.0043392807647825
0.381370841464
0.004171765956065
0.37737082851905
0.004000012961795
0.37354666448637
0.0038241640498133
0.36990229456807
0.0036443699356094
0.36644150342771
0.0034607911580139
0.36316790761114
0.0032735958344396
0.36008495048362
0.0030829571457751
0.35719589814765
0.0028890523544254
0.35450383514181
0.002692063024694
0.35201166044413
0.0024921747167284
0.34972208392151
0.0022895765420553
0.34763762352757
0.002084460413565
0.34576060269234
0.0018770208552406
0.34409314824737
0.0016674544651397
0.34263718831432
0.0014559599536017
0.34139445051514
0.0012427378198892
0.34036645964932
0.001027990886918
0.33955453530743
0.00081192436313354
0.33895978773876
0.00059474759033797
0.33858311041334
0.00037667734723177
0.3384251483727
0.000157962062901
0.33848634606627
-6.1197671130097e-05
0.33876721051649
-0.00028086442731666
0.33926764292168
-0.00050043238211509
0.33998745905998
-0.00071981611474659
0.3409262627653
-0.00093880368162406
0.34208343386257
-0.0011571710731388