/*--------------------------------*- C++ -*----------------------------------*\
| =========                 |                                                 |
| \\      /  F ield         | OpenFOAM: The Open Source CFD Toolbox           |
|  \\    /   O peration     | Version:  2112                                  |
|   \\  /    A nd           | Website:  www.openfoam.com                      |
|    \\/     M anipulation  |                                                 |
\*---------------------------------------------------------------------------*/
FoamFile
{
    version     2.0;
    format      ascii;
    arch        "LSB;label=32;scalar=64";
    class       surfaceScalarField;
    location    "10.3";
    object      phi;
}
// * * * * * * * * * * * * * * * * * * * * * * * * * * * * * * * * * * * * * //

dimensions      [0 3 -1 0 0 0 0];

oriented        oriented;

internalField   nonuniform List<scalar> 
43645
(
0.39512371820173
-4.8451654672353e-06
0.39513823003523
-1.4511866366866e-05
0.39516240213294
-2.4172133207421e-05
0.3951962245216
-3.3822425293848e-05
0.39523968950183
-4.3465017004881e-05
0.3952927722003
-5.3082734871415e-05
0.39535542518929
-6.2653024669985e-05
0.39542758174076
-7.2156586359504e-05
0.3955091570094
-8.1575302608875e-05
0.39560005382218
-9.0896845865008e-05
0.39570016080106
-0.00010010701101333
0.39580935914572
-0.00010919837591539
0.39592751256891
-0.00011815345349851
0.3960544808903
-0.00012696835085901
0.3961900992456
-0.00013561838388057
0.39633421088635
-0.00014411166856427
0.39648661689221
-0.00015240603287274
0.39664714547618
-0.00016052861033661
0.39681553257983
-0.00016838712934098
0.39699158531693
-0.00017605276228203
0.39717491944509
-0.00018333415279674
0.39736535318477
-0.00019043376397264
0.3975623159049
-0.0001969627440173
0.39776576228575
-0.0002034464045358
0.39797480505221
-0.00020904278988937
0.39818980782443
-0.00021500279557939
0.39840922380011
-0.00021941599889471
0.39863439298087
-0.00022516920370755
0.39886227192678
-0.00022787896834125
-0.00023413621828098
0.39909640812226
0.37294711045365
-9.4009276637325e-06
0.37296087991721
-2.8281383052011e-05
0.37298395448056
-4.7246750601542e-05
0.37301632543883
-6.6193437506124e-05
0.37305798131262
-8.5120944010345e-05
0.3731088997826
-0.00010400125711328
0.37316904276939
-0.00012279606254843
0.37323835642844
-0.0001414702953585
0.37331676899918
-0.00015998792203934
0.37340419475386
-0.00017832264806039
0.37350053244383
-0.00019644474721349
0.37360567336002
-0.00021433933715388
0.37371949263697
-0.00023197277425326
0.37384186275545
-0.00024933851203029
0.37397263208641
-0.00026638775634265
0.37411165604185
-0.00028313566452931
0.37425874654014
-0.00029949657065042
0.37441374088957
-0.00031552299842719
0.37457638438964
-0.00033103066721356
0.37474649385188
-0.00034616226170062
0.37492369793058
-0.00036053826798912
0.37510782847469
-0.00037456434416165
0.3752983329467
-0.00038746725160755
0.37549518121769
-0.00040029471087743
0.37569750814877
-0.00041136975599378
0.37590568908541
-0.00042318376716883
0.37611820794392
-0.00043193489217042
0.37633640951589
-0.00044337081003491
0.37655730864802
-0.00044877813357867
-0.00046129742193424
0.37678446981764
0.35201543093422
-1.3934389718366e-05
0.35202909235357
-4.19428579292e-05
0.35205189255551
-7.0047008158614e-05
0.35208380620269
-9.8107139638464e-05
0.35212481476881
-0.00012612956392507
0.35217489616372
-0.0001540827045798
0.35223402000645
-0.00018191995640791
0.35230214553136
-0.00020959587006025
0.35237921511634
-0.00023705755532114
0.35246515527576
-0.00026426285443279
0.35255987472316
-0.00029116424007334
0.35266327499071
-0.00031773964884021
0.35277524297317
-0.00034394079940822
0.35289566559128
-0.00036976117160325
0.35302440461032
-0.00039512681551918
0.35316132809502
-0.00042005918832917
0.35330625409361
-0.0004444226071862
0.35345902690098
-0.00046829584292441
0.35361939132183
-0.00049139512427627
0.35378717518669
-0.00051394616220203
0.35396200653489
-0.00053536965115767
0.3541437437029
-0.00055630154681981
0.35433182773731
-0.000575551320229
0.35452627643811
-0.00059474344581422
0.3547261881186
-0.00061128147038227
0.35493202125903
-0.00062901694163047
0.35514214737943
-0.00064206104655747
0.35535807416348
-0.00065929762786901
0.35557653743943
-0.00066724144214782
-0.000686192031458
0.35580143201504
0.33225855848762
-1.8448963979952e-05
0.33227220496177
-5.558938126174e-05
0.33229496335796
-9.2805453683558e-05
0.33232677778285
-0.00012992161335939
0.33236761271767
-0.00016696454659663
0.33241744420084
-0.00020391423453662
0.3324762519413
-0.0002407277424143
0.33254401200262
-0.00027735597576153
0.33262068417604
-0.00031372977180357
0.33270620955057
-0.00034978827081962
0.33280050835707
-0.00038546308708966
0.33290349416825
-0.00042072549935383
0.33301506784886
-0.00045551451803646
0.33313513393762
-0.00048982729730446
0.33326357009984
-0.00052356301347308
0.33340025949076
-0.00055674861406045
0.3335450258139
-0.00058918896410625
0.33369772050385
-0.00062099056592529
0.33385808388991
-0.00065175854257303
0.33402595565459
-0.00068181795861997
0.33420095705413
-0.00071037108182303
0.33438297884504
-0.00073832336860209
0.33457144484544
-0.00076401735108495
0.33476643605114
-0.00078973468191987
0.33496699005058
-0.00081183549999594
0.3351736837452
-0.00083571066654531
0.33538472463049
-0.00085310196205897
0.33560187111023
-0.00087644413762723
0.33582147823213
-0.00088684859296659
-0.00091272528247655
0.33604801145298
0.31361057915512
-2.2970780870154e-05
0.3136242965034
-6.93067734344e-05
0.31364716041177
-0.00011566940592585
0.31367908560929
-0.00016184685416693
0.3137200188363
-0.00020789781586165
0.31376993428224
-0.00025382972167263
0.31382882389393
-0.0002996173940378
0.31389668433207
-0.00034521645267643
0.31397349687365
-0.00039054235083423
0.31405922079774
-0.00043551223118315
0.31415379088341
-0.00048003320768542
0.31425713587239
-0.00052407052212086
0.31436917397132
-0.00056755264947359
0.3144898314503
-0.00061048480776688
0.31461900562266
-0.00065273721616309
0.3147565987434
-0.00069434176429205
0.31490244233071
-0.00073503257994636
0.31505639798323
-0.00077494624636817
0.31521820154103
-0.00081356212756984
0.315387708331
-0.00085132477541811
0.31556453094491
-0.0008871937220611
0.3157486000526
-0.00092239250250341
0.3159393162895
-0.00095473361391444
0.3161368386576
-0.0009872570760527
0.31634012718571
-0.0010151240540682
0.31654990686059
-0.001045490367671
0.31676417823549
-0.0010673733632916
0.31698501162178
-0.0010972775502616
0.31720827626065
-0.0011101132573548
-0.001143583642925
0.31743913459413
0.29600924029147
-2.7509250802923e-05
0.29602306272025
-8.3129242551879e-05
0.29604608820001
-0.00013869492594805
0.29607820135405
-0.00019396004791584
0.29611933171426
-0.00024902821486313
0.29616945335594
-0.00030395140121438
0.29622857340786
-0.00035873748270051
0.29629671303076
-0.00041335611130964
0.29637387922462
-0.00046770857923257
0.296460053615
-0.00052168665506495
0.29655518947398
-0.00057516909895121
0.29665923489574
-0.00062811597514956
0.29677212989926
-0.00068044768307783
0.29689382762392
-0.00073218256159587
0.29702424994483
-0.00078315956517516
0.29716332341661
-0.00083341526342075
0.29731089116104
-0.00088260035080324
0.29746682950518
-0.0009308846163833
0.29763087202216
-0.00097760466970585
0.29780289502105
-0.0010233477991198
0.29798250329865
-0.0010668020239566
0.29816967576931
-0.0011095649973237
0.29836378745343
-0.0011488453218751
0.29856508896386
-0.0011885586103666
0.29877245082978
-0.0012224859437288
0.29898677023703
-0.0012598097988703
0.29920580709813
-0.001286410248317
0.29943199261016
-0.0013234630861558
0.29966063121357
-0.0013387518837955
-0.0013806397625156
0.29989768730874
0.2793957829247
-3.205768948272e-05
0.27940969524548
-9.7041598892521e-05
0.27943285746009
-0.00016185717595892
0.2794651240998
-0.00022622672248258
0.27950640846827
-0.0002903126173182
0.27955668661534
-0.00035422958140986
0.2796159839124
-0.00041803481184808
0.27968434979929
-0.00048172202935026
0.27976182112852
-0.00054517993850703
0.2798484061508
-0.00060827170644783
0.27994408098033
-0.00067084395644747
0.28004881776657
-0.00073285278844073
0.28016258337747
-0.00079421331994763
0.28028536348818
-0.00085496269745624
0.28041711019061
-0.00091490629177273
0.28055778045399
-0.00097408555031423
0.28070723427693
-0.0010320541964294
0.28086536884
-0.0010890192016694
0.28103191990344
-0.0011441557547179
0.2812067917298
-0.0011982196468013
0.28138958480014
-0.0012495951151722
0.2815803355232
-0.0013003157412069
0.28177839406774
-0.001346903886988
0.28198411613122
-0.0013942806945425
0.28219627631366
-0.0014346461467836
0.28241596613561
-0.0014794996417218
0.28264068220431
-0.0015111263379411
0.28287325921166
-0.0015560401144772
0.28310837961553
-0.001573872307957
-0.001625160562739
0.283352900394
0.26371474858423
-3.659685439277e-05
0.26372869607633
-0.00011098912306569
0.26375190516404
-0.00018506629558539
0.26378420145118
-0.00025852304109925
0.26382548350966
-0.00033159470653717
0.26387573147733
-0.0004044775791151
0.26393499174027
-0.00047729510395739
0.26400334536684
-0.00055007568433105
0.26408086285452
-0.00062269745365022
0.26416758323963
-0.0006949921182415
0.26426350996497
-0.00076677070748672
0.26436864416724
-0.00083798701564781
0.26448298489782
-0.00090855407450756
0.26460655629628
-0.0009785341191903
0.26473934681959
-0.0010476968374745
0.26488135060558
-0.0011160893581142
0.26503245101846
-0.001183154630347
0.26519257349032
-0.0012491416941494
0.26536146245025
-0.001313044734638
0.26553905855537
-0.0013758157716504
0.26572496403918
-0.0014355006182327
0.26591928311386
-0.0014946348350495
0.26612134531336
-0.0015489661053205
0.26633162483049
-0.0016045602305541
0.2665487992268
-0.0016518205617736
0.26677417452574
-0.0017048749595013
0.26700497117578
-0.0017419230067088
0.2672444628416
-0.0017955317989376
0.26748667146596
-0.0018160809502532
-0.0018779042567216
0.26773941514071
0.24891379389644
-4.1098087609538e-05
0.24892769146632
-0.0001248867209222
0.24895080756019
-0.00020818241728574
0.24898294100673
-0.00029065651509392
0.24902397762869
-0.00037263135531196
0.24907390372523
-0.00045440370188938
0.24913278902108
-0.00053618042529662
0.24920074890086
-0.00061803558898147
0.24927789070843
-0.00069983928527822
0.24936428799787
-0.0007813894310977
0.24945997584199
-0.00086245857417699
0.24956498912505
-0.00094300032064926
0.24967936435103
-0.0010229293215858
0.24980316986591
-0.001102339654608
0.24993643677061
-0.0011809637619266
0.25007920328024
-0.00125885588703
0.25023138348664
-0.0013353348553531
0.25039293921205
-0.0014106974378228
0.25056363182278
-0.0014837373630709
0.25074344767877
-0.0015556316451467
0.25093199950413
-0.0016240524606716
0.25112946999889
-0.0016921053468378
0.25133517623189
-0.0017546723550383
0.25154972371455
-0.0018191077300017
0.25177169798511
-0.0018737948489194
0.25200263601151
-0.0019358130026478
0.25223947821775
-0.0019787652295684
0.25248596359246
-0.0020420171901856
0.25273543458391
-0.0020655519575852
-0.0021391897394357
0.25299672004948
0.23494351569542
-4.5526246855757e-05
0.23495725658984
-0.00013862764026085
0.23498010445564
-0.00023103030788973
0.2350118342268
-0.00032238631077322
0.23505232124754
-0.0004131184000668
0.23510155982309
-0.00050364230102691
0.23515964470708
-0.00059426533229015
0.23522672739104
-0.00068511829548006
0.23530295441445
-0.00077606633057086
0.23538843679708
-0.00086687183512809
0.23548324503676
-0.00095726683456434
0.23558745189471
-0.0010472071988126
0.23570113622154
-0.0011366136679346
0.23582441556038
-0.0012256190125025
0.2359573698086
-0.0013139180285398
0.23610008759515
-0.0014015736915784
0.23625252181986
-0.0014877690974584
0.23641467855579
-0.0015728541908509
0.23658634629071
-0.0016554051145567
0.23676756561684
-0.001736850987658
0.23695797190665
-0.0018144587664204
0.23715783459662
-0.0018919680526571
0.23736647286592
-0.0019633106398437
0.23758463146725
-0.0020372663468327
0.23781082104555
-0.0020999844424325
0.23804681960667
-0.0021718115790383
0.23828929927763
-0.0022212449155495
0.23854247950946
-0.0022951974368505
0.23879901283151
-0.0023220852937902
-0.0024089377732388
0.23906876085005
0.22175728604415
-4.9842521860773e-05
0.22177075029118
-0.00015209190913642
0.22179313340097
-0.00025341343943973
0.22182418975748
-0.00035344268885484
0.22186378657957
-0.00045271524331873
0.22191192763264
-0.00055178337496099
0.22196873358889
-0.00065107130893802
0.22203439274616
-0.00075077747281848
0.22210909210852
-0.00085076571247121
0.22219298201498
-0.00095076176079559
0.22228617137239
-0.0010504562106088
0.2223887738519
-0.001149809696607
0.22250091491537
-0.0012487547491121
0.22262276485395
-0.0013474689684545
0.22275445835003
-0.0014456115414311
0.22289613910317
-0.001543254461233
0.22304780802921
-0.0016394380394932
0.22320952123731
-0.0017345674147144
0.22338110784213
-0.0018269917346775
0.2235626671522
-0.0019184103128689
0.22375387665204
-0.0020056682810094
0.22395509076051
-0.0020931821757964
0.22416566077382
-0.0021738806674788
0.2243864556564
-0.0022580612437306
0.22461595969612
-0.0023294884961725
0.2248561624019
-0.0024120142988614
0.22510353624132
-0.0024686187687246
0.2253627619758
-0.0025544231848751
0.22562585981149
-0.0025851831423519
-0.0026867504249331
0.22590367244927
0.20931109641164
-5.400700205386e-05
0.209324158771
-0.000165154287991
0.20934587260476
-0.00027512729265247
0.20937597524098
-0.00038354534441457
0.20941432796471
-0.00049106798608718
0.20946094488475
-0.00059840031385692
0.20951597253631
-0.00070609897900834
0.20957963555847
-0.00081444051328243
0.20965216140882
-0.00092329158073633
0.20973374036806
-0.0010323407377293
0.20982452155236
-0.0011412374121514
0.20992466128522
-0.0012499494464827
0.21003433479595
-0.0013584282763976
0.21015376694466
-0.0014669011334806
0.21028315257846
-0.001574997191075
0.21042269279823
-0.0016827946966362
0.21057244674739
-0.0017891920038263
0.21073252281192
-0.0018946434942426
0.21090280859923
-0.001997277536549
0.2110834589976
-0.0020990607256553
0.21127422605675
-0.0021964353541845
0.21147552576075
-0.0022944818937248
0.21168681233651
-0.0023851672568138
0.21190899287091
-0.002480241791647
0.21214070088248
-0.0025611965209084
0.21238388610202
-0.0026551995315302
0.2126352134316
-0.0027199461110776
0.2128993299901
-0.0028185397558873
0.21316820591393
-0.002854059078001
-0.0029719800782909
0.21345343555454
0.19756341053531
-5.7981023902386e-05
0.19757594744632
-0.00017769121642764
0.19759679135091
-0.00029597121469782
0.19762566579445
-0.00041241980535271
0.19766242791454
-0.00052783012335888
0.19770710242148
-0.00064307483788571
0.19775986065954
-0.00075885723390579
0.19782096195571
-0.00087554182617754
0.19789067275236
-0.00099300239381155
0.19796922268646
-0.0011108906881407
0.19805680119396
-0.0012288159356342
0.19815360805287
-0.0013467563212367
0.19825986908214
-0.0014646893211365
0.19837586502202
-0.0015828970886938
0.19850185304027
-0.0017009852242847
0.19863809438863
-0.0018190360597984
0.1987847127172
-0.0019358103468222
0.19894187302699
-0.0020518038183052
0.19910953361704
-0.002164938140504
0.19928790839081
-0.0022774355131894
0.19947684315319
-0.0023853701299678
0.19967681410962
-0.0024944528634488
0.19988740792895
-0.0025957610890884
0.20010955879078
-0.0027023926663283
0.20034210379328
-0.0027937415359187
0.20058689027464
-0.0028999860253028
0.20084097721582
-0.0029740330643043
0.20110855700882
-0.003086119560638
0.20138253069984
-0.0031280327800995
-0.0032635544382554
0.20167410504784
0.18647502597855
-6.1729647477507e-05
0.18648692191746
-0.00018958717125943
0.18650670975626
-0.00031575906947946
0.1865341013827
-0.00043981144778891
0.18656895132065
-0.00056268007715397
0.18661129464584
-0.00068541817887922
0.18666132558055
-0.00080888818423766
0.18671933530264
-0.0009335515638494
0.18678562641079
-0.0010592935173289
0.18686046590573
-0.0011857301983922
0.1869440820817
-0.0013124321266621
0.18703671759036
-0.0014393918449065
0.18713864753423
-0.0015666192797258
0.18725020873518
-0.0016944583042913
0.18737171958748
-0.0018224960909273
0.18750350450005
-0.0019508209866276
0.18764575255433
-0.002078058415023
0.18779869343049
-0.0022047447082769
0.18796235839837
-0.002328603121841
0.18813703487718
-0.0024521120053252
0.18832266129299
-0.0025709965587473
0.18851980100143
-0.0026915925847186
0.18872815613705
-0.0028041162371584
0.18894875404116
-0.0029229905827694
0.18918055951537
-0.0030255470220775
0.18942550255567
-0.0031449290774124
0.18968080522436
-0.0032293357444136
0.18995060173546
-0.0033559160828298
0.19022823532835
-0.0034056663834375
-0.0035599365107689
0.19052461738957
0.17600894170124
-6.5222602607255e-05
0.17602009694321
-0.00020074242802225
0.17603866579056
-0.00033432793171795
0.17606435124648
-0.00046549691865252
0.17609700655419
-0.00059533539968352
0.17613667642543
-0.0007250880649347
0.17618357535668
-0.00085578713013879
0.1762380225422
-0.00098799876400953
0.17630035274068
-0.0011216237302575
0.17637086695427
-0.001256244426426
0.17644982957176
-0.0013913947583958
0.1765375236736
-0.0015270859609666
0.17663427096785
-0.0016633665879927
0.17674046198157
-0.0018006493320035
0.17685647402755
-0.0019385081506682
0.17698269446041
-0.0020770414331942
0.17711937779123
-0.002214741759273
0.17726682294813
-0.0023521898785205
0.17742513588549
-0.0024869160722129
0.17759468790928
-0.0026216640419943
0.17777550983472
-0.0027518184966954
0.17796827084154
-0.002884353603874
0.17817278158251
-0.0030086269900674
0.17839019644582
-0.003140405457835
0.17861958654232
-0.0032549371299263
0.17886303413835
-0.0033883766846109
0.17911782964906
-0.0034841312658823
0.17938829821735
-0.0036263846615441
0.17966779112501
-0.0036851593009122
-0.0038597232266515
0.17996757783022
0.1661302346205
-6.843525623141e-05
0.16614056882022
-0.00021107664178533
0.16615778466048
-0.00035154378613035
0.16618157986403
-0.00048929213639795
0.16621180772382
-0.00062556327353315
0.16624852129801
-0.00076180165315688
0.16629195186721
-0.00089921771317956
0.16634244194639
-0.0010384888569929
0.16640035365674
-0.0011795354541962
0.16646601758031
-0.0013219083635552
0.16653973011624
-0.0014651073076999
0.16662181079672
-0.001609166654806
0.16671262371242
-0.0017541795168869
0.16681260857769
-0.0019006342104729
0.16692219768667
-0.0020480972726729
0.16704183816831
-0.0021966819278321
0.16717184889526
-0.0023447524989951
0.16731259812164
-0.0024929391175917
0.16746426892341
-0.0026385868863584
0.16762731927839
-0.0027847144091894
0.16780187727066
-0.0029263765007908
0.16798872221815
-0.0030711985629622
0.16818778116288
-0.0032076859459589
0.16840033954484
-0.003352963850684
0.16862559212164
-0.0034801897171635
0.16886577371464
-0.0036285582877919
0.16911828756135
-0.0037366451223638
0.16938764098183
-0.0038957380914366
0.16966724590526
-0.0039647642332434
-0.0041611319003672
0.16996865456921
0.15680594314647
-7.1349725346235e-05
0.1568153957701
-0.00022052927899236
0.15683115665934
-0.00036730468900325
0.15685292149896
-0.00051105698962329
0.15688054473812
-0.00065318652606879
0.15691408622579
-0.00079534315405588
0.15695379013484
-0.00093892163517533
0.15700001688464
-0.0010847156195604
0.15705315015903
-0.0012326687410579
0.15711354470745
-0.0013823029243112
0.1571815241039
-0.0015330867162531
0.15725743910953
-0.0016850816725054
0.15734169049727
-0.0018384309165181
0.15743476093695
-0.0019937046620596
0.15753713189247
-0.002150468239961
0.15764930500775
-0.0023088550548816
0.1577716600289
-0.0024671075317209
0.15790463218846
-0.0026259112886495
0.15804848110498
-0.0027824358140703
0.15820375135507
-0.0029399846702809
0.15837067020766
-0.0030932953639639
0.15855012840305
-0.0032506567686138
0.15874217639543
-0.003399733948101
0.15894823157233
-0.0035590190369675
0.15916762793873
-0.0036995860924297
0.15940274682082
-0.0038636771783951
0.1596511404155
-0.0039850387251098
0.15991748422892
-0.0041620819125852
0.16019534601846
-0.0042426260301326
-0.0044622185888675
0.16049643269875
0.14800495615621
-7.3954964047288e-05
0.14801348708023
-0.00022906021648923
0.1480277244744
-0.00038154209660741
0.14804736485242
-0.00053069738083148
0.14807226465647
-0.00067808634286819
0.14810248861749
-0.00082556712743652
0.14813828965837
-0.0009747226878868
0.14818004040206
-0.0011264663746673
0.1482281400834
-0.001280768433323
0.14828296148205
-0.0014371243335661
0.14834484953986
-0.0015949747843214
0.14841417977396
-0.0017544119167192
0.14849138328663
-0.0019156344391074
0.14857697765503
-0.0020792990403747
0.14867148653087
-0.0022449771255905
0.1487754586199
-0.0024128271537088
0.14888932939894
-0.002580978320393
0.14901359619027
-0.0027501780895323
0.14914859164686
-0.0029174312799177
0.14929494410989
-0.003086337142318
0.14945297671642
-0.0032513279790333
0.14962369099958
-0.0034213710598957
0.1498072608385
-0.0035833037945518
0.15000524250019
-0.0037570007056727
0.15021711712119
-0.0039114607198056
0.15044542360521
-0.0040919836683161
0.15068786360476
-0.0042274787300541
0.15094927452726
-0.0044234928401745
0.15122342951194
-0.0045167810197057
-0.0047609100978962
0.15152212101521
0.13969790853214
-7.6246249185249e-05
0.13970549728882
-0.00023664898744513
0.13971817559692
-0.00039422041882802
0.13973564327255
-0.00054816506998639
0.13975775904193
-0.00070020212494031
0.13978459019927
-0.00085239829664157
0.13981639412939
-0.0010065266289524
0.13985354980484
-0.001163622060271
0.13989646611983
-0.0013236847576627
0.13994552749918
-0.0014861857216793
0.14000109458758
-0.0016505418809434
0.14006356005357
-0.0018168773906531
0.1401333783445
-0.0019854527377057
0.14021109203763
-0.0021570127411242
0.1402972598033
-0.0023311448987571
0.14039246689986
-0.002508034257772
0.14049719963778
-0.0026857110656712
0.14061200835458
-0.0028649868136025
0.14073729580456
-0.0030427187368484
0.1408737655371
-0.0032228068815128
0.14102183238402
-0.0033993948320634
0.14118260155906
-0.0035821402405041
0.1413563601297
-0.0037570623700282
0.14154481159991
-0.0039454521800113
0.14174757193204
-0.0041142210552813
0.14196739782706
-0.0043118095660235
0.1422021213135
-0.0044622022185778
0.14245677720851
-0.0046781487369712
0.14272528296775
-0.0047852867807762
-0.0050549589524774
0.14301933181962
0.13185708256855
-7.8224102823017e-05
0.13186372598336
-0.00024329241953105
0.13187484000067
-0.00040533445335488
0.13189012969312
-0.00056345477865252
0.13190945571438
-0.00071952816102006
0.13193288531256
-0.00087582790820959
0.13196067618707
-0.0010343175153809
0.13199320782643
-0.0011961537102676
0.13203089299513
-0.0013613699357938
0.13207412114177
-0.0015294138768349
0.13212326324281
-0.0016996839897416
0.1321787207674
-0.0018723349225537
0.13224096512164
-0.002047697098892
0.13231055176272
-0.0022265993890253
0.13238806861672
-0.0024086617594444
0.13247412282515
-0.0025940884728595
0.13256925028463
-0.0027808385316609
0.13267403618205
-0.0029697727173891
0.13278895808621
-0.003157640647018
0.13291477101494
-0.0033486198158499
0.13305198973459
-0.0035366135566671
0.13320179924899
-0.0037319497591362
0.13336459641934
-0.0039198595436897
0.13354222209533
-0.004123077858353
0.13373438175657
-0.004306380717851
0.13394410941077
-0.0045215372206224
0.13416936172998
-0.0046874545374306
0.13441556533684
-0.00492435234312
0.13467674337776
-0.005046464821235
-0.0053421257874536
0.13496391021223
0.12445631577619
-7.9893559423167e-05
0.12446202477485
-0.00024900144270494
0.1244715957104
-0.00041490541399956
0.12448474017273
-0.00057659926488516
0.12450131986529
-0.00073610787553777
0.12452139901116
-0.0008959070739556
0.124545231217
-0.0010581497390247
0.12457319106376
-0.0012241135730253
0.12460569044789
-0.001393869334316
0.12464311834101
-0.00156684178313
0.12468585102039
-0.001742416681309
0.12473428933548
-0.0019207732492229
0.12478891453289
-0.002102322307402
0.12485028025014
-0.0022879651171568
0.12491899989128
-0.0024773814112691
0.12499568367782
-0.0026707722699733
0.12508092419541
-0.0028660790596105
0.12517531105689
-0.0030641595889657
0.12527941826662
-0.0032617478663699
0.12539399753275
-0.003463199091003
0.12551970637478
-0.0036623224068565
0.12565773081255
-0.003869974204046
0.12580864478165
-0.0040707735187053
0.12597434454858
-0.0042887776298979
0.12615464951548
-0.0044866856879791
0.12635278599916
-0.0047196737062206
0.12656669297111
-0.0049013615102196
0.12680257571054
-0.005160235082882
0.12705456481159
-0.0052984539228898
-0.0056214071490007
0.12733384617122
0.11747091659017
-8.1266400403609e-05
0.11747571793858
-0.00025380282895089
0.11748379242255
-0.0004229799372591
0.11749485677511
-0.00058766365560601
0.11750877549591
-0.00075002663220026
0.11752560844942
-0.0009127400607639
0.11754559977163
-0.0010781410920058
0.11756911171864
-0.001247625548589
0.11759655001526
-0.0014213076576075
0.11762830093196
-0.0015985927250593
0.11766474275559
-0.0017788585290381
0.1177062690845
-0.0019622996014571
0.11775336305876
-0.0021494163044279
0.11780656090483
-0.0023411629856196
0.11786649529518
-0.0025373158236952
0.11793375873143
-0.002738035728025
0.11800901119795
-0.0029413315475706
0.11809280869747
-0.0031479571094187
0.11818586304974
-0.0033548022388676
0.11828883188819
-0.0035661679487246
0.11840261543036
-0.0037761059670699
0.11852821457935
-0.0039955733695754
0.1186665898258
-0.0042091487800182
0.11881942285306
-0.0044416106701908
0.11898696475807
-0.0046542276041766
0.11917242068732
-0.0049051296447868
0.11937335381833
-0.0051022946489875
0.11959699400875
-0.0053838752801256
0.11983569551249
-0.0055371554335315
-0.0058959338648037
0.12011022221931
0.1108775850152
-8.2366562371774e-05
0.11088153120412
-0.00025774907407805
0.11088819093992
-0.00042963973139831
0.110897276815
-0.00059674958789426
0.11090866012631
-0.00076140999821504
0.11092239583639
-0.00092647582269857
0.11093871663713
-0.0010944619418559
0.11095796675333
-0.0012668757115527
0.11098053927052
-0.0014438802195884
0.11100681638491
-0.0016248698827634
0.11103717304086
-0.0018092152271103
0.11107199092744
-0.0019971175293467
0.11111174560305
-0.0021891710206687
0.11115694856414
-0.0023863659868562
0.111208245408
-0.0025886127071747
0.11126620189614
-0.0027959922553262
0.11133154829466
-0.0030066779845679
0.11140477638996
-0.0032211852424293
0.11148676875913
-0.0034367946445614
0.11157798743036
-0.0036573866550729
0.11167971090671
-0.0038778294766027
0.11179246402685
-0.0041083265207875
0.11191799847227
-0.0043346832540557
0.11205707544617
-0.0045806876702794
0.11221137237014
-0.004808524551769
0.1123829987814
-0.0050767560771639
0.11257083468648
-0.005290130572829
0.11278170882087
-0.0055947494317548
0.11300300946146
-0.0057584560909353
-0.0061659606556423
0.11327303623226
0.10465432340264
-8.3224060413235e-05
0.10465749589457
-0.00026092164171875
0.10466284602935
-0.0004349899432371
0.10467009066294
-0.00060399429712482
0.10467910262217
-0.00077042203051927
0.10468993005153
-0.00093730332231398
0.10470278208581
-0.0011073140437828
0.10471797772036
-0.0012820714115375
0.10473590524248
-0.0014618078053983
0.1047569483229
-0.0016459130255018
0.10478149048335
-0.0018337574488473
0.10480989089428
-0.0020255180007233
0.10484258953291
-0.0022218697190659
0.10488005991455
-0.0024238364275904
0.10492294372033
-0.0026314965714038
0.10497179647857
-0.0028448450712195
0.10502741179208
-0.0030622933548139
0.10509023746536
-0.0032840109711199
0.10516130482381
-0.0035078620567848
0.10524084631114
-0.0037369281938763
0.10533055961254
-0.0039675428267741
0.10543024933924
-0.0042080162930124
0.10554293463285
-0.0044473685899194
0.10566731965002
-0.0047050727262925
0.1058085136115
-0.0049497185488071
0.10596349015329
-0.0052317326510126
0.10613968354477
-0.0054663239932679
0.10633600930324
-0.0057910752168074
0.10655171440116
-0.0059741612146518
-0.0064147633206087
0.10680051703518
0.098780303514242
-8.38093851683e-05
0.09878276641533
-0.00026338463137358
0.098786839125208
-0.00043906274221727
0.09879240274337
-0.00060955800283119
0.098799219605491
-0.00077723897786013
0.098807404435466
-0.00094548823515201
0.098817118767014
-0.0011170284561013
0.098828638875318
-0.0012935915990022
0.098842349008178
-0.0014755180161874
0.098858644155798
-0.0016622082502104
0.098877913169927
-0.0018530265393771
0.098900501435326
-0.0020481063420193
0.098926806417443
-0.0022481747765086
0.098957244571102
-0.00245427465606
0.098992412813663
-0.0026666648880333
0.099032846576876
-0.002885278907692
0.099079374957157
-0.0031088218070954
0.09913246019129
-0.0033370962756409
0.099193247895967
-0.0035686498294016
0.099261860949364
-0.0038055413120896
0.099340298875895
-0.0040459808140475
0.099427809136776
-0.0042955266102
0.099528529495381
-0.0045480890000937
0.099639078786237
-0.0048156220642269
0.099768537076293
-0.0050791768814299
0.099906258626815
-0.0053694542395919
0.10007245171871
-0.0056325171190148
0.10024174998293
-0.0059603735122659
0.10045647273966
-0.006188884002919
0.10070601267039
-0.0066643032885321
0.39443267142695
0.0046637366724282
0.38992694744466
0.0045057239599201
0.38558375778881
0.0043431896337013
0.38140749809153
0.0041762596749994
0.37740242074785
0.0040050773212544
0.37357263425872
0.0038297864663334
0.36992209438994
0.0036505398457118
0.36645459417501
0.0034675001914103
0.36317375770946
0.003280836441752
0.36008303795609
0.0030907197290974
0.35718571689123
0.002897321040313
0.35448490726157
0.0027008096046532
0.35198355486023
0.0025013523760982
0.34968444078438
0.0022991140501705
0.34759018241014
0.0020942583483505
0.34570323287584
0.001886949508016
0.34402587847393
0.0016773543754734
0.34256023456208
0.0014656438850275
0.34130824037527
0.0012519941598868
0.34027165377036
0.0010365865776174
0.33945204623064
0.00081960751233225
0.33885079758597
0.00060124861693138
0.33846908759456
0.00038170996358049
0.33830785907874
0.00016122848760368
0.33836791138038
-6.0052329942101e-05
0.33865011350456
-0.00028220215289719
0.33915473222532
-0.00050461874956607
0.3398819791042
-0.00072724690810761
0.3408318698322
-0.00094989075729254
0.34200420590646
-0.0011723361039328
0.34339856392642
-0.0013943580496316
0.34501429130994