/*--------------------------------*- C++ -*----------------------------------*\
| =========                 |                                                 |
| \\      /  F ield         | OpenFOAM: The Open Source CFD Toolbox           |
|  \\    /   O peration     | Version:  2112                                  |
|   \\  /    A nd           | Website:  www.openfoam.com                      |
|    \\/     M anipulation  |                                                 |
\*---------------------------------------------------------------------------*/
FoamFile
{
    version     2.0;
    format      ascii;
    arch        "LSB;label=32;scalar=64";
    class       volVectorField;
    location    "10.3";
    object      U;
}
// * * * * * * * * * * * * * * * * * * * * * * * * * * * * * * * * * * * * * //

dimensions      [0 1 -1 0 0 0 0];

internalField   nonuniform List<vector> 
22000
(
(1.0000009661283 -2.5301038158018e-05 0)
(1.0000260553916 -7.586888202122e-05 0)
(1.0000744267237 -0.00012621209697548 0)
(1.0001470382755 -0.00017644173098128 0)
(1.0002443680215 -0.00022658438507291 0)
(1.0003664345214 -0.00027656512964982 0)
(1.0005129790453 -0.00032627391388559 0)
(1.0006836946471 -0.000375612962078 0)
(1.0008783147729 -0.00042448979840823 0)
(1.0010966100724 -0.00047284302713651 0)
(1.0013383361698 -0.00052060103584949 0)
(1.00160322991 -0.0005677266676999 0)
(1.0018909682728 -0.00061412844083923 0)
(1.0022012162823 -0.00065978625886075 0)
(1.0025335630315 -0.00070457098949939 0)
(1.0028876294374 -0.00074852747405844 0)
(1.0032629203192 -0.00079143612841665 0)
(1.0036590361832 -0.0008334435587829 0)
(1.004075336142 -0.00087406627014917 0)
(1.0045113838057 -0.00091368391049965 0)
(1.0049662525312 -0.00095128881191859 0)
(1.0054395082835 -0.00098795558355365 0)
(1.0059297869367 -0.0010216297404997 0)
(1.0064368851195 -0.0010550981950673 0)
(1.0069587928121 -0.0010838995484837 0)
(1.007496012767 -0.0011146798525377 0)
(1.0080454135952 -0.0011372896380445 0)
(1.0086090221643 -0.0011670977489472 0)
(1.0091815998344 -0.0011807607011036 0)
(1.0097681884621 -0.0012136044067913 0)
(1.0000004174222 -7.4576768202199e-05 0)
(1.0000256967674 -0.00022389315376262 0)
(1.0000747559437 -0.00037270248207269 0)
(1.0001484295432 -0.00052126294104201 0)
(1.0002472118848 -0.00066962282713322 0)
(1.0003711832779 -0.00081755847119866 0)
(1.0005201352779 -0.00096475525330855 0)
(1.0006937998631 -0.0011109311009959 0)
(1.0008919270297 -0.0012558096438878 0)
(1.0011143083171 -0.0013991981228539 0)
(1.0013606956273 -0.0015408755578094 0)
(1.0016308508412 -0.0016807268746217 0)
(1.0019244335996 -0.0018184849090992 0)
(1.0022411607858 -0.0019540902925496 0)
(1.0025805754351 -0.0020871649224923 0)
(1.0029423974034 -0.0022178301794102 0)
(1.0033260052116 -0.0023454377490657 0)
(1.0037311925929 -0.0024703970829587 0)
(1.0041570204347 -0.0025912933532503 0)
(1.0046034733421 -0.0027092081241927 0)
(1.0050689714285 -0.0028212144209939 0)
(1.0055540232376 -0.0029303992713791 0)
(1.0060558430173 -0.0030308241678979 0)
(1.006576312851 -0.0031305048256838 0)
(1.0071103193771 -0.0032165976119375 0)
(1.0076629238193 -0.0033081874556186 0)
(1.0082242859101 -0.0033761586977804 0)
(1.0088062440258 -0.0034645371043682 0)
(1.00938935446 -0.0035065601834673 0)
(1.0099994547105 -0.003603157688486 0)
(1.0000004280644 -0.00012224361773462 0)
(1.0000269880573 -0.0003674720721368 0)
(1.000078451307 -0.00061195091155911 0)
(1.0001555534109 -0.00085600860549158 0)
(1.0002587054863 -0.0010997420246341 0)
(1.0003879594446 -0.0013428401571189 0)
(1.0005431184035 -0.0015848480686403 0)
(1.0007239564677 -0.0018253397649319 0)
(1.0009302529391 -0.0020638579877654 0)
(1.0011618374412 -0.0023000581098307 0)
(1.0014184574865 -0.0025335486747622 0)
(1.0016999111275 -0.0027641371350633 0)
(1.0020058278779 -0.0029913933668522 0)
(1.0023360048222 -0.0032152397524697 0)
(1.0026899107613 -0.0034350428867507 0)
(1.0030674213266 -0.0036509935723594 0)
(1.00346770489 -0.0038619657278855 0)
(1.0038908614155 -0.0040686351279566 0)
(1.0043354510574 -0.004268600850908 0)
(1.0048021491079 -0.0044637311604761 0)
(1.0052882766933 -0.0046490963669994 0)
(1.0057959390002 -0.0048299996118626 0)
(1.0063199204614 -0.0049963752296784 0)
(1.0068657151683 -0.0051618814096339 0)
(1.0074227754616 -0.0053046567968109 0)
(1.0080042271065 -0.0054571538872622 0)
(1.008588167128 -0.0055698084666131 0)
(1.0092042157936 -0.0057174805009696 0)
(1.0098066863796 -0.0057866083484187 0)
(1.0104602512367 -0.0059487899555086 0)
(1.0000004197362 -0.00016951387299461 0)
(1.0000284990339 -0.00051018417279562 0)
(1.0000829512996 -0.00084963176852713 0)
(1.0001644613005 -0.0011882130028091 0)
(1.0002733701231 -0.0015261848379271 0)
(1.000409689523 -0.0018632811681233 0)
(1.000573218085 -0.0021990186141934 0)
(1.000763773591 -0.0025328930244514 0)
(1.000981172936 -0.0028642729392111 0)
(1.0012253033132 -0.0031926346706001 0)
(1.0014959111182 -0.0035173869864993 0)
(1.0017928504141 -0.0038382644997979 0)
(1.002115711395 -0.0041546931266853 0)
(1.0024644093198 -0.0044666112189542 0)
(1.0028383111376 -0.004773114743883 0)
(1.0032375195899 -0.0050744544303539 0)
(1.003660907203 -0.0053689396064557 0)
(1.0041090157434 -0.0056575238658484 0)
(1.0045796932898 -0.0059367188303859 0)
(1.0050746060968 -0.0062093293629218 0)
(1.0055895080426 -0.0064682656404032 0)
(1.0061287909805 -0.006721402200701 0)
(1.0066837705296 -0.0069541126276674 0)
(1.0072651123585 -0.0071864133869462 0)
(1.0078545068011 -0.0073863266252368 0)
(1.0084766219621 -0.0076012530008137 0)
(1.0090923311774 -0.0077586620258373 0)
(1.0097566959425 -0.0079678934175246 0)
(1.0103865888889 -0.0080629348432167 0)
(1.0111021799371 -0.0082944055602162 0)
(1.0000004074673 -0.00021668470409321 0)
(1.000030280498 -0.00065307351388858 0)
(1.0000882709395 -0.0010875700756864 0)
(1.0001750061554 -0.0015204701854654 0)
(1.0002907523811 -0.0019523017354062 0)
(1.0004354812477 -0.0023829965667136 0)
(1.0006089907184 -0.0028121783282531 0)
(1.000811157304 -0.0032393452047068 0)
(1.0010418494695 -0.0036637000131065 0)
(1.0013010341319 -0.0040845077513296 0)
(1.0015884633274 -0.0045009419132446 0)
(1.0019040715369 -0.0049126700250318 0)
(1.0022474061958 -0.005318995520979 0)
(1.002618543445 -0.0057199150882288 0)
(1.0030167272855 -0.0061142345015667 0)
(1.0034423630371 -0.0065022578765823 0)
(1.0038939521697 -0.0068816216580318 0)
(1.0043726176661 -0.007253577682761 0)
(1.0048753022167 -0.007613411739324 0)
(1.0054049611202 -0.0079650562045173 0)
(1.0059553421756 -0.0082990339146485 0)
(1.0065337938125 -0.0086262512361404 0)
(1.0071271788434 -0.0089269263007769 0)
(1.0077528290952 -0.0092283883053356 0)
(1.0083824645727 -0.0094870705427272 0)
(1.0090556057112 -0.0097674500637086 0)
(1.0097110018793 -0.0099706708626396 0)
(1.010436398212 -0.01024545710286 0)
(1.0111005959076 -0.010365814647944 0)
(1.0118949436194 -0.010672595516188 0)
(1.0000003892326 -0.00026393208955186 0)
(1.0000322457109 -0.00079675008251752 0)
(1.0000941580672 -0.0013268111567206 0)
(1.0001866804999 -0.0018542529177686 0)
(1.0003099907586 -0.0023799958376237 0)
(1.0004640193025 -0.0029043380622654 0)
(1.000648572721 -0.0034271611066622 0)
(1.0008636078889 -0.0039480564665692 0)
(1.0011090643735 -0.0044660714043718 0)
(1.0013850150921 -0.004980223898185 0)
(1.001691228933 -0.0054894121234599 0)
(1.002027749553 -0.0059932435952346 0)
(1.0023940844753 -0.0064909229328564 0)
(1.0027905185202 -0.0069825540818678 0)
(1.0032161599134 -0.0074666289105585 0)
(1.0036717960361 -0.0079434998999888 0)
(1.0041554930204 -0.008410004026072 0)
(1.0046690949473 -0.0088677193012954 0)
(1.0052084626557 -0.0093105389800358 0)
(1.0057781309471 -0.0097437498625596 0)
(1.0063694335597 -0.010155208448912 0)
(1.0069933174788 -0.010559401080462 0)
(1.007631270552 -0.010930671544818 0)
(1.0083087120227 -0.011304806922637 0)
(1.0089853105823 -0.011624885191584 0)
(1.0097185669816 -0.011975015852724 0)
(1.0104204945818 -0.012225990085239 0)
(1.0112183328958 -0.012571796710972 0)
(1.011922846682 -0.012717423032772 0)
(1.0128112701995 -0.013107369287766 0)
(1.0000003635128 -0.00031127050442714 0)
(1.000034293861 -0.00094130434021808 0)
(1.0001003209764 -0.0015675165590884 0)
(1.0001989101964 -0.00218978533312 0)
(1.0003301379618 -0.0028095563950483 0)
(1.0004938938848 -0.0034276762039376 0)
(1.0006900044925 -0.0040444476482578 0)
(1.0009185312452 -0.0046596555979942 0)
(1.0011795075848 -0.005272205451312 0)
(1.0014731419796 -0.0058808328777967 0)
(1.0017992356782 -0.0064841202115117 0)
(1.0021579741735 -0.0070816254448195 0)
(1.0025488337426 -0.0076724816125885 0)
(1.0029723596777 -0.0082569559274989 0)
(1.0034275196605 -0.0088332018065031 0)
(1.0039155658334 -0.0094016193720125 0)
(1.0044340772337 -0.0099581083069332 0)
(1.0049857591862 -0.010504609555884 0)
(1.005565235125 -0.01103343664957 0)
(1.0061789008536 -0.011551487165385 0)
(1.0068153047748 -0.012043631178724 0)
(1.0074896034235 -0.012528551843556 0)
(1.0081770582999 -0.012973900292532 0)
(1.0089125122241 -0.013425215334229 0)
(1.0096416563781 -0.013810218809253 0)
(1.0104428921833 -0.014235543117747 0)
(1.0111972272355 -0.014537069874901 0)
(1.0120777180246 -0.014960694361407 0)
(1.0128279086733 -0.015132169869311 0)
(1.0138244938697 -0.015614782387068 0)
(1.0000003291867 -0.00035856908380423 0)
(1.0000363238879 -0.0010863701673395 0)
(1.0001064655949 -0.0018090871268194 0)
(1.0002111153985 -0.0025262363038894 0)
(1.0003502373063 -0.0032399291555505 0)
(1.0005236821078 -0.0039517526420356 0)
(1.000731309397 -0.0046626042983534 0)
(1.000973310957 -0.0053725702096357 0)
(1.0012498390389 -0.0060804323590291 0)
(1.001561269522 -0.0067846119310282 0)
(1.001907455533 -0.0074833372023015 0)
(1.0022887605209 -0.0081761315873085 0)
(1.0027046441882 -0.0088620877436867 0)
(1.0031559674782 -0.0095416987768768 0)
(1.0036415614808 -0.010212756180182 0)
(1.0041632280894 -0.010875712697267 0)
(1.0047180217994 -0.01152538693171 0)
(1.0053096481094 -0.012164128880716 0)
(1.0059313621695 -0.012782471307774 0)
(1.0065916903538 -0.013389202748379 0)
(1.0072760695722 -0.013965855601999 0)
(1.0080044366565 -0.01453597987006 0)
(1.0087450648782 -0.015059638448214 0)
(1.0095434540027 -0.015593531419466 0)
(1.0103295756003 -0.016047840917319 0)
(1.0112054027007 -0.016554873396524 0)
(1.0120170806894 -0.016910631647428 0)
(1.0129892136206 -0.017420155489651 0)
(1.0137898711888 -0.017618832625797 0)
(1.0149074345691 -0.018205214101395 0)
(1.0000002854396 -0.00040558398696779 0)
(1.0000382360658 -0.0012312236956859 0)
(1.00011230009 -0.0020503289020244 0)
(1.0002227198586 -0.0028619535420038 0)
(1.0003693377272 -0.0036690188817251 0)
(1.0005519697451 -0.0044740495892926 0)
(1.0007705232687 -0.0052787166480882 0)
(1.0010253468185 -0.0060835206753458 0)
(1.0013167376521 -0.0068871439791862 0)
(1.0016452720791 -0.0076876660547191 0)
(1.0020108779125 -0.0084829275777967 0)
(1.0024141349404 -0.009272437292972 0)
(1.0028545065386 -0.010055283278643 0)
(1.0033332263497 -0.010832253083565 0)
(1.0038490016605 -0.011600756435677 0)
(1.0044042693071 -0.012361310614861 0)
(1.0049955378345 -0.01310750977672 0)
(1.0056276473371 -0.013842168625519 0)
(1.0062923834955 -0.01455383285001 0)
(1.0070006546759 -0.015253479274985 0)
(1.0077345150944 -0.015918933646344 0)
(1.0085192021734 -0.016579318310552 0)
(1.0093153471112 -0.017186163696893 0)
(1.0101802100992 -0.017808818834803 0)
(1.0110265339636 -0.01833762135552 0)
(1.0119822211255 -0.018933881319682 0)
(1.0128552024423 -0.019348468356543 0)
(1.013926632047 -0.019953212522683 0)
(1.0147819878631 -0.020181369684508 0)
(1.0160319236727 -0.020884145550702 0)
(1.0000002315763 -0.00045198980037598 0)
(1.0000399344885 -0.0013748786072404 0)
(1.0001175429934 -0.0022896109450156 0)
(1.0002331676583 -0.0031946818104543 0)
(1.00038652263 -0.0040939657506546 0)
(1.0005773947134 -0.004991121968765 0)
(1.0008057546007 -0.0058887747766223 0)
(1.0010721332845 -0.0067879554479747 0)
(1.0013769993913 -0.0076872760860587 0)
(1.0017211619701 -0.0085844535260839 0)
(1.0021046488526 -0.0094769145834617 0)
(1.0025282947214 -0.010364177937703 0)
(1.0029915922041 -0.011245369020339 0)
(1.0034962037916 -0.012121642386995 0)
(1.0040407351444 -0.01299001385305 0)
(1.0046283396339 -0.013851083269405 0)
(1.0052549770003 -0.014697086150202 0)
(1.0059267461181 -0.015531363839653 0)
(1.0066338979051 -0.016340276765142 0)
(1.0073899459641 -0.017137290877261 0)
(1.0081733590486 -0.017896162000727 0)
(1.0090151236473 -0.01865229406141 0)
(1.0098677121069 -0.019347739038178 0)
(1.0108010838097 -0.020066000246298 0)
(1.0117095258024 -0.02067523697402 0)
(1.0127488546628 -0.021369160506859 0)
(1.0136860515875 -0.021848132032706 0)
(1.0148629503823 -0.022558621530136 0)
(1.0157766798593 -0.02281964279117 0)
(1.017168770132 -0.023652904014188 0)
(1.0000001674982 -0.00049740936142106 0)
(1.0000413307475 -0.0015161765331788 0)
(1.0001219331604 -0.0025250146335817 0)
(1.0002419429902 -0.0035217693243786 0)
(1.0004009420823 -0.0045114070348813 0)
(1.0005986945312 -0.0054989124937202 0)
(1.0008352500406 -0.0064880399673813 0)
(1.0011113450586 -0.0074804672525696 0)
(1.0014276453509 -0.0084747718047594 0)
(1.0017852213899 -0.0094682931763734 0)
(1.0021842292179 -0.010458028437479 0)
(1.0026257925871 -0.011443533227779 0)
(1.0031094665324 -0.012424022112147 0)
(1.0036373903294 -0.013401087449253 0)
(1.0042081049979 -0.014371355564804 0)
(1.0048255470632 -0.015335524855568 0)
(1.0054851544127 -0.016284365382786 0)
(1.0061943800863 -0.017221796319286 0)
(1.0069419340466 -0.018131835769614 0)
(1.007744096005 -0.019030700785077 0)
(1.0085756605361 -0.019887786209337 0)
(1.0094736772336 -0.020745394524255 0)
(1.0103821599511 -0.021535291423487 0)
(1.0113844273895 -0.022356459227153 0)
(1.0123554986688 -0.023052786659347 0)
(1.0134805533473 -0.023853512512254 0)
(1.014483672796 -0.024403393818019 0)
(1.0157704749061 -0.025231205843071 0)
(1.0167456031004 -0.025529698282935 0)
(1.0182878663833 -0.026508919395225 0)
(1.0000000931386 -0.00054144148722286 0)
(1.0000423471623 -0.0016538715876213 0)
(1.0001252400557 -0.002754474030249 0)
(1.0002485902394 -0.003840362194494 0)
(1.0004118465706 -0.0049177239683515 0)
(1.0006147562881 -0.0059930495563697 0)
(1.0008574630102 -0.0070713920566932 0)
(1.0011409263875 -0.008155188299634 0)
(1.0014660347273 -0.0092430224343882 0)
(1.0018341403809 -0.010331848111209 0)
(1.002245561739 -0.011418229775368 0)
(1.0027017320054 -0.012501786049252 0)
(1.0032023188639 -0.013581887689838 0)
(1.0037499586162 -0.014660623442181 0)
(1.0043432023629 -0.015734267549533 0)
(1.0049867827132 -0.016803609065823 0)
(1.0056757224621 -0.017857910822874 0)
(1.0064188179527 -0.018901663959942 0)
(1.0072033997235 -0.019916502737898 0)
(1.0080484465069 -0.020921515602372 0)
(1.008925351912 -0.021881677346122 0)
(1.0098770319173 -0.022846474928795 0)
(1.0108395268873 -0.023737084255159 0)
(1.0119090771648 -0.024668573316679 0)
(1.0129421799186 -0.025459477801167 0)
(1.0141528025576 -0.026376396675144 0)
(1.0152226469839 -0.027004896690048 0)
(1.0166214845702 -0.027962223404435 0)
(1.0176601922902 -0.028304168293093 0)
(1.0193581927748 -0.029445711709882 0)
(1.0000000091793 -0.00058368664071935 0)
(1.0000429195707 -0.0017867091316978 0)
(1.0001272711683 -0.0029759054441522 0)
(1.00025272984 -0.004147582661556 0)
(1.000418613318 -0.0053092670578997 0)
(1.0006246566439 -0.0064691189816983 0)
(1.0008711100281 -0.0076336468924088 0)
(1.0011591672858 -0.0088061534683254 0)
(1.0014899626506 -0.0099852743116634 0)
(1.0018651408419 -0.011167575801621 0)
(1.002285221701 -0.012349198285991 0)
(1.0027519499466 -0.01352984949161 0)
(1.0032651773199 -0.014709137091181 0)
(1.0038280140701 -0.015889690116013 0)
(1.0044391566963 -0.017067507588918 0)
(1.0051040450789 -0.018243424615413 0)
(1.0058175474079 -0.01940524884828 0)
(1.0065895574692 -0.020557937829088 0)
(1.0074065577462 -0.021680893846268 0)
(1.008289593172 -0.022795930134695 0)
(1.0092078449446 -0.02386400067378 0)
(1.0102084499667 -0.024941318353505 0)
(1.0112223387136 -0.02593947445596 0)
(1.0123543975554 -0.026987943654703 0)
(1.0134495972367 -0.027882886229691 0)
(1.0147402608069 -0.028923160591633 0)
(1.0158812598322 -0.029642690929867 0)
(1.0173855594788 -0.030737262387926 0)
(1.0184965411619 -0.031134894644271 0)
(1.0203512996551 -0.032455255504281 0)
(0.9999999163213 -0.00062377014458303 0)
(1.0000430024934 -0.001913499888198 0)
(1.0001278847873 -0.0031873302669508 0)
(1.0002540787682 -0.0044406961228733 0)
(1.0004207754724 -0.0056825642543628 0)
(1.0006277012195 -0.0069229120650373 0)
(1.0008752208013 -0.0081698440957158 0)
(1.0011647692335 -0.0094276281244949 0)
(1.0014977410901 -0.010694996220927 0)
(1.0018760822219 -0.011968136327325 0)
(1.0023005400599 -0.013242776828156 0)
(1.0027731783529 -0.014518753219788 0)
(1.0032940827352 -0.015795979731574 0)
(1.0038668304615 -0.01707769092747 0)
(1.0044903637789 -0.0183596707305 0)
(1.0051707733663 -0.019642797217389 0)
(1.0059029825887 -0.020913465782739 0)
(1.0066977974216 -0.022177036483647 0)
(1.0075412939121 -0.023410830897098 0)
(1.0084561045706 -0.02463927398066 0)
(1.0094101079847 -0.025819659220489 0)
(1.0104535769827 -0.027014619785999 0)
(1.0115141405833 -0.028126794877731 0)
(1.0127030256614 -0.029299325322782 0)
(1.0138573953831 -0.030307083465965 0)
(1.0152224861107 -0.031479402310463 0)
(1.0164358672812 -0.032301944243939 0)
(1.018036891573 -0.03354116120295 0)
(1.0192326710888 -0.034014841315164 0)
(1.0212334651819 -0.035523018798926 0)
(0.99999981615226 -0.00066136022206757 0)
(1.0000425690507 -0.0020331752159591 0)
(1.0001269981378 -0.0033869652507212 0)
(1.0002524697984 -0.0047172370047385 0)
(1.0004180495472 -0.0060344836503318 0)
(1.0006234579601 -0.0073506250853658 0)
(1.0008691794053 -0.0086754839658336 0)
(1.0011568930175 -0.010014381667243 0)
(1.0014882594124 -0.011366191708722 0)
(1.0018655307396 -0.012726739691797 0)
(1.0022896949771 -0.014091360361949 0)
(1.0027631457145 -0.015460061410999 0)
(1.0032862263859 -0.016833128052874 0)
(1.0038629968448 -0.018214476196219 0)
(1.0044926856374 -0.019599723824003 0)
(1.0051820534445 -0.020989832450942 0)
(1.0059261489858 -0.022369795431207 0)
(1.0067367071488 -0.023745415119947 0)
(1.0075995196958 -0.025091968223312 0)
(1.0085388024625 -0.026436597036733 0)
(1.0095213361547 -0.027732998433681 0)
(1.0106004728957 -0.029050385427086 0)
(1.0117008665488 -0.030282432076012 0)
(1.0129399307696 -0.031586182495875 0)
(1.0141475140345 -0.032714883441057 0)
(1.0155814782803 -0.034029051710257 0)
(1.0168627800919 -0.034964739906429 0)
(1.0185566582218 -0.036361251638087 0)
(1.0198352032257 -0.0369226028111 0)
(1.0219801577636 -0.038634566939867 0)
(0.99999970959142 -0.00069617751893274 0)
(1.0000416108152 -0.0021448156262628 0)
(1.0001245826947 -0.0035732743369653 0)
(1.0002478389214 -0.0049750872083224 0)
(1.0004103213649 -0.0063623404307635 0)
(1.0006117468618 -0.0077489968591924 0)
(1.0008527199136 -0.0091466971154548 0)
(1.0011351608199 -0.010561891160852 0)
(1.0014609939874 -0.011993636946603 0)
(1.0018327762025 -0.013437419440308 0)
(1.0022517402404 -0.014888204342108 0)
(1.0027206139111 -0.016346217457345 0)
(1.0032400105181 -0.017812178500037 0)
(1.0038144823455 -0.019290757133078 0)
(1.0044435667424 -0.020777463658846 0)
(1.0051347146678 -0.022273388255381 0)
(1.0058831422038 -0.023762160561707 0)
(1.0067015499271 -0.025250070455387 0)
(1.0075755177849 -0.026710419640634 0)
(1.0085308958632 -0.028173167857358 0)
(1.0095334838111 -0.029588511557856 0)
(1.0106397618478 -0.031032392536638 0)
(1.0117715971056 -0.032389548605759 0)
(1.0130525976145 -0.033831127535226 0)
(1.0143056172548 -0.035088564449543 0)
(1.0158010311001 -0.036553974622173 0)
(1.0171437857021 -0.037613139257877 0)
(1.0189246453191 -0.039179237555776 0)
(1.0202818405092 -0.039840830655661 0)
(1.0225667015885 -0.041772619418362 0)
(0.99999959883414 -0.00072800328449346 0)
(1.0000401361828 -0.0022476820819273 0)
(1.0001206545967 -0.0037450221976925 0)
(1.0002402121752 -0.005212548930327 0)
(1.0003976278535 -0.006663986990675 0)
(1.0005926158413 -0.0081154158635399 0)
(1.0008258980308 -0.0095803706846654 0)
(1.0010996261091 -0.011066490057604 0)
(1.0014159780576 -0.012573055639701 0)
(1.0017778045293 -0.014095236960014 0)
(1.0021865795596 -0.015627659138066 0)
(1.0026453604387 -0.017170811840908 0)
(1.0031550333034 -0.018725909310691 0)
(1.0037206410341 -0.020298443954046 0)
(1.0043420400453 -0.02188388070707 0)
(1.0050273797074 -0.023483491748681 0)
(1.0057720713929 -0.025079600426773 0)
(1.00658980968 -0.026679040901064 0)
(1.0074660186606 -0.028253233345825 0)
(1.0084282310591 -0.029835053370592 0)
(1.0094413617326 -0.031371325165836 0)
(1.010565075536 -0.032944843827974 0)
(1.0117186171607 -0.034431521213372 0)
(1.0130318255538 -0.036016721720583 0)
(1.0143208463786 -0.03741009038047 0)
(1.015868501104 -0.039035490496707 0)
(1.0172642711696 -0.040228233610042 0)
(1.0191241476739 -0.041975753626617 0)
(1.0205536328517 -0.042750615786017 0)
(1.0229715714374 -0.044917348589458 0)
(0.99999948535664 -0.00075668666875993 0)
(1.000038168431 -0.0023412410184007 0)
(1.0001152739203 -0.0039013143965711 0)
(1.0002297014066 -0.0054283971521386 0)
(1.0003801495417 -0.006937876303038 0)
(1.0005663281754 -0.0084479938746266 0)
(1.0007890697079 -0.0099742322462961 0)
(1.0010507411038 -0.011525463633223 0)
(1.0013537584052 -0.013101229798292 0)
(1.0017012462585 -0.014696411776701 0)
(1.0020949099818 -0.016305325696427 0)
(1.0025381187847 -0.017928765543801 0)
(1.0030320272387 -0.019568496083578 0)
(1.0035821510321 -0.021230892250549 0)
(1.0041886671794 -0.022911441425613 0)
(1.0048604133631 -0.024611654173699 0)
(1.0055930163208 -0.02631262414054 0)
(1.006401172916 -0.028021796808499 0)
(1.0072702012156 -0.029708819731349 0)
(1.0082293406849 -0.03140958865998 0)
(1.0092427097728 -0.033067693534033 0)
(1.0103731925112 -0.034772905834275 0)
(1.0115375573373 -0.036392466477294 0)
(1.0128719293166 -0.038126044272371 0)
(1.0141859977383 -0.039661665944917 0)
(1.0157750552125 -0.041454963087837 0)
(1.017213578484 -0.042790905947833 0)
(1.0191425940598 -0.044731028855345 0)
(1.0206357080526 -0.045632195210811 0)
(1.0231771839506 -0.048047554328152 0)
(0.9999993714897 -0.00078214358893916 0)
(1.0000357409211 -0.0024251632751121 0)
(1.0001085332316 -0.0040415982509009 0)
(1.0002164891413 -0.0056218852833192 0)
(1.0003581895817 -0.0071830752064044 0)
(1.0005333348768 -0.0087455891737721 0)
(1.0007428566082 -0.010326886052314 0)
(1.0009893113281 -0.011937099250825 0)
(1.0012753345738 -0.013576064657579 0)
(1.0016042967957 -0.015238400106983 0)
(1.0019781245526 -0.016918151300603 0)
(1.0024004664447 -0.01861644517234 0)
(1.0028727392024 -0.020335655872888 0)
(1.003400886057 -0.022083078505265 0)
(1.0039854102506 -0.023854306675401 0)
(1.0046357864369 -0.025651130250123 0)
(1.0053478987244 -0.02745352040813 0)
(1.0061373920443 -0.029269593670971 0)
(1.0069895775708 -0.031067355328104 0)
(1.0079353310018 -0.032885827788413 0)
(1.0089381340843 -0.034665500331279 0)
(1.0100640008752 -0.036503270753448 0)
(1.0112274409934 -0.038257833927465 0)
(1.0125707805328 -0.040143340739493 0)
(1.0138976104574 -0.041826303728422 0)
(1.0155156048447 -0.043794435372283 0)
(1.016984963366 -0.045282325904873 0)
(1.0189714970443 -0.047425875139039 0)
(1.0205177268608 -0.048466137277351 0)
(1.0231707711154 -0.051142701652432 0)
(0.99999925838032 -0.0008043501124445 0)
(1.0000328908834 -0.0024993044331305 0)
(1.0001005417195 -0.0041656320383666 0)
(1.0002007974903 -0.0057927054270429 0)
(1.0003321295971 -0.0073992187303989 0)
(1.0004942169804 -0.0090077592823577 0)
(1.0006880745125 -0.010637769918711 0)
(1.0009164123991 -0.012300655576054 0)
(1.0011820670426 -0.01399658062379 0)
(1.0014886126968 -0.015719915932354 0)
(1.0018381940535 -0.01746448228379 0)
(1.0022346817556 -0.019231741979068 0)
(1.0026797647258 -0.021024749995287 0)
(1.0031797186577 -0.022851719348069 0)
(1.0037354195986 -0.024708479016561 0)
(1.0043568373255 -0.026597090489608 0)
(1.0050402488711 -0.028496591943799 0)
(1.0058020311559 -0.030415747801675 0)
(1.0066277661299 -0.032321156557904 0)
(1.0075496161889 -0.034254950308935 0)
(1.0085309061998 -0.03615477208321 0)
(1.0096402127237 -0.038124701041208 0)
(1.0107905955999 -0.040015038329158 0)
(1.0121295942327 -0.042054750879303 0)
(1.0134561368747 -0.043888511629997 0)
(1.0150885961234 -0.04603728234319 0)
(1.0165754262727 -0.047684176589286 0)
(1.0186054542335 -0.050041593184551 0)
(1.0201927994128 -0.051233770272165 0)
(1.0229439438086 -0.054183288174729 0)
(0.99999914706319 -0.00082333872077037 0)
(1.0000296560563 -0.0025636875947518 0)
(1.0000914127836 -0.0042734395074588 0)
(1.0001828677398 -0.0059409011479902 0)
(1.0003023964171 -0.0075863791156069 0)
(1.0004496354407 -0.0092345916415866 0)
(1.0006256612124 -0.010906949054674 0)
(1.0008332863365 -0.012616114592125 0)
(1.0010755407563 -0.014362620748765 0)
(1.0013561485645 -0.016140605019391 0)
(1.0016774939504 -0.017943724582987 0)
(1.0020435667189 -0.019773737475727 0)
(1.0024563733074 -0.021634466310147 0)
(1.0029223263489 -0.023534954832478 0)
(1.0034428167724 -0.025471474639287 0)
(1.0040279937235 -0.027446222798002 0)
(1.0046748934416 -0.029437698058242 0)
(1.0054000788464 -0.031455035414128 0)
(1.0061901271546 -0.033464021520189 0)
(1.0070774760872 -0.035509412889361 0)
(1.0080266266854 -0.037526779760257 0)
(1.0091068813034 -0.039626870278972 0)
(1.0102323453153 -0.041652212968784 0)
(1.0115524447078 -0.043846724379294 0)
(1.012865958252 -0.045832684921042 0)
(1.0144960685579 -0.048166123992226 0)
(1.0159865216774 -0.049976074339998 0)
(1.018041819368 -0.052555100220145 0)
(1.0196557689474 -0.05391085200106 0)
(1.0224903906931 -0.05713915889566 0)
(0.99999903650897 -0.00083921545561253 0)
(1.0000261051278 -0.002618546728469 0)
(1.0000813318725 -0.0043653508502579 0)
(1.0001630456565 -0.0060668618349714 0)
(1.0002695420109 -0.0077449640255265 0)
(1.0004004001837 -0.0094264712264756 0)
(1.0005567432406 -0.011134744589155 0)
(1.0007414127162 -0.01288367458019 0)
(1.0009576177334 -0.014674186946451 0)
(1.0012091592168 -0.016500183303046 0)
(1.0014987323853 -0.018355227822178 0)
(1.0018303038569 -0.020241305218543 0)
(1.0022063214676 -0.022163132076943 0)
(1.0026329944757 -0.024130417147526 0)
(1.0031125365492 -0.026140190198432 0)
(1.0036546343975 -0.028194427508905 0)
(1.0042578859732 -0.030271758130921 0)
(1.0049378255818 -0.032380890865029 0)
(1.0056837261845 -0.034488083737351 0)
(1.006525893242 -0.036639143361309 0)
(1.0074332529666 -0.038769802380544 0)
(1.0084712985975 -0.040994923390909 0)
(1.0095611541773 -0.043152490698764 0)
(1.0108462188884 -0.045498307485606 0)
(1.0121356035878 -0.047635462057398 0)
(1.0137440500937 -0.050153134786651 0)
(1.0152274719413 -0.052126140497736 0)
(1.0172826760638 -0.054929431261839 0)
(1.0189131111685 -0.056446858535722 0)
(1.0217954327353 -0.059957020324171 0)
(0.99999892774639 -0.00085222445616095 0)
(1.0000223945155 -0.0026645532991099 0)
(1.0000706985578 -0.0044423895997965 0)
(1.0001420304753 -0.0061719071093879 0)
(1.0002345772338 -0.0078764984029817 0)
(1.0003478297436 -0.0095849994325112 0)
(1.0004829583717 -0.011322685343816 0)
(1.0006427963249 -0.013104693564907 0)
(1.0008307298295 -0.014932443845578 0)
(1.0010505419245 -0.016799611153032 0)
(1.0013053108549 -0.018699677745747 0)
(1.0015988054676 -0.020634708140588 0)
(1.0019340633189 -0.02261039018331 0)
(1.0023166825029 -0.024636930552801 0)
(1.0027501804536 -0.02671259234417 0)
(1.0032429160046 -0.028838753161569 0)
(1.0037963380754 -0.030995156028792 0)
(1.0044229241412 -0.033188773712745 0)
(1.0051176693827 -0.035388345829436 0)
(1.0059040500303 -0.037637628570521 0)
(1.0067622303824 -0.039876843506595 0)
(1.0077435959659 -0.042219041909488 0)
(1.0087910159619 -0.044505530652322 0)
(1.0100204591808 -0.046994954239056 0)
(1.0112817565029 -0.049281291066003 0)
(1.0128391614104 -0.051979944740164 0)
(1.0143212556453 -0.054112142168713 0)
(1.0163338969276 -0.057151080651314 0)
(1.0180033208994 -0.058804107979676 0)
(1.0208725134063 -0.062661882648095 0)
(0.99999880525206 -0.00086288727599483 0)
(1.0000186790931 -0.0027033018471062 0)
(1.0000599371433 -0.0045071861530559 0)
(1.0001205539393 -0.0062599604696392 0)
(1.0001985925793 -0.0079863710762046 0)
(1.0002934073184 -0.0097172490430726 0)
(1.0004061229199 -0.011479639052096 0)
(1.0005394537638 -0.013289899282523 0)
(1.0006970012143 -0.015150147587924 0)
(1.0008825595986 -0.017054208353887 0)
(1.0010998045939 -0.018995406671559 0)
(1.001352227869 -0.020975779619449 0)
(1.0016433505387 -0.023001973078565 0)
(1.001977785805 -0.025084503344877 0)
(1.0023604602381 -0.02722330274996 0)
(1.002797937764 -0.029418949902212 0)
(1.0032954766027 -0.031653622218846 0)
(1.0038611317742 -0.033931409000082 0)
(1.0044982342234 -0.036226500376447 0)
(1.0052189074242 -0.038576594624875 0)
(1.0060217241704 -0.040933608236376 0)
(1.0069314899314 -0.043398521841036 0)
(1.0079323283159 -0.045832409430467 0)
(1.0090811551663 -0.048474817146139 0)
(1.0103172083755 -0.050941165685356 0)
(1.0117790297904 -0.053839471438584 0)
(1.0132828223093 -0.056170885369836 0)
(1.015178135704 -0.059505410374612 0)
(1.016980678829 -0.061317799021376 0)
(1.019739631128 -0.065836067135768 0)
(0.99999862283628 -0.00087273132249704 0)
(1.0000142150519 -0.00273962463423 0)
(1.0000479768865 -0.0045687412338402 0)
(1.0000973907594 -0.0063451496296502 0)
(1.0001604838314 -0.0080946521915653 0)
(1.0002364978137 -0.0098500284552526 0)
(1.0003266479588 -0.011640011840719 0)
(1.0004334173438 -0.013482154925424 0)
(1.0005603504028 -0.015379177363562 0)
(1.0007115846169 -0.017324554922021 0)
(1.0008910277248 -0.019312167593722 0)
(1.0011022559164 -0.021344122649894 0)
(1.0013491112033 -0.023428217426847 0)
(1.0016353791684 -0.02557547859946 0)
(1.0019665752962 -0.027787614362487 0)
(1.0023478843569 -0.030064158493802 0)
(1.0027871623296 -0.032390045830366 0)
(1.0032896959054 -0.034765658804682 0)
(1.0038653236565 -0.037172732912683 0)