/*--------------------------------*- C++ -*----------------------------------*\
| =========                 |                                                 |
| \\      /  F ield         | OpenFOAM: The Open Source CFD Toolbox           |
|  \\    /   O peration     | Version:  2112                                  |
|   \\  /    A nd           | Website:  www.openfoam.com                      |
|    \\/     M anipulation  |                                                 |
\*---------------------------------------------------------------------------*/
FoamFile
{
    version     2.0;
    format      ascii;
    arch        "LSB;label=32;scalar=64";
    class       volVectorField;
    location    "13.6";
    object      U;
}
// * * * * * * * * * * * * * * * * * * * * * * * * * * * * * * * * * * * * * //

dimensions      [0 1 -1 0 0 0 0];

internalField   nonuniform List<vector> 
22000
(
(1.0000010401423 -2.6003443663973e-05 0)
(1.0000269267086 -7.8255829135848e-05 0)
(1.0000769233857 -0.00013051881235474 0)
(1.0001520850265 -0.00018225427297085 0)
(1.0002525238939 -0.00023327943460867 0)
(1.0003779114405 -0.0002836735847943 0)
(1.0005278385711 -0.00033357571583848 0)
(1.0007019687177 -0.00038310093532867 0)
(1.0009000733472 -0.00043230124318384 0)
(1.0011220125362 -0.00048118303709194 0)
(1.0013676500435 -0.00052967295802318 0)
(1.0016368183589 -0.00057768703918922 0)
(1.0019292587165 -0.00062507242735496 0)
(1.0022446715446 -0.00067175630528569 0)
(1.0025826548811 -0.00071757154203375 0)
(1.002942829754 -0.00076255074884795 0)
(1.0033246953391 -0.00080648242613628 0)
(1.0037278679305 -0.00084956589676549 0)
(1.0041517434639 -0.00089138544972826 0)
(1.0045959828834 -0.00093244233823779 0)
(1.005059794686 -0.00097181596710285 0)
(1.005542959664 -0.00101072576055 0)
(1.0060443436646 -0.0010471364834684 0)
(1.006564046888 -0.0010839736765532 0)
(1.0071003144233 -0.0011166428187147 0)
(1.0076539949296 -0.0011519921676407 0)
(1.0082221230142 -0.0011794692425242 0)
(1.0088071591246 -0.001214958580816 0)
(1.0094037113099 -0.0012340964489434 0)
(1.0100175854879 -0.0012736846052257 0)
(1.0000004768637 -7.6406831947156e-05 0)
(1.0000262156577 -0.00023014343317976 0)
(1.0000762623224 -0.00038407496384857 0)
(1.000151590098 -0.00053659354221054 0)
(1.0002523708522 -0.00068714308602791 0)
(1.0003783781097 -0.00083594130031432 0)
(1.0005292733592 -0.000983384980713 0)
(1.0007047646576 -0.0011298037969467 0)
(1.0009046423496 -0.0012753445869536 0)
(1.0011287945788 -0.00142002179415 0)
(1.0013770920972 -0.0015636177594634 0)
(1.001649408467 -0.0017058842193339 0)
(1.0019454824254 -0.0018463716732741 0)
(1.0022650842077 -0.0019848619492514 0)
(1.0026077773811 -0.0021208606947529 0)
(1.0029733017226 -0.0022544534057154 0)
(1.0033610414101 -0.0023850181877406 0)
(1.003770838603 -0.0025131273111971 0)
(1.0042018048335 -0.0026375735370862 0)
(1.0046540729186 -0.0027598037888094 0)
(1.0051262043456 -0.0028771540470781 0)
(1.0056189911918 -0.002993134769005 0)
(1.006129857253 -0.0031018709054722 0)
(1.0066610831781 -0.0032117668276086 0)
(1.0072077286048 -0.0033096107817103 0)
(1.0077753969899 -0.0034150314113366 0)
(1.0083541118965 -0.0034978188762076 0)
(1.0089568145299 -0.0036033452643571 0)
(1.0095627652921 -0.0036621784263858 0)
(1.0102008325341 -0.003779028174855 0)
(1.0000004948249 -0.00012439990939873 0)
(1.0000269731567 -0.00037493934354268 0)
(1.0000783261522 -0.00062595323093348 0)
(1.0001554444099 -0.0008748975227345 0)
(1.0002584987844 -0.0011209060809798 0)
(1.000387324482 -0.0013643194376767 0)
(1.0005416487873 -0.0016057483302302 0)
(1.0007212441372 -0.0018456982259846 0)
(1.0009259370859 -0.0020843845370184 0)
(1.0011556642547 -0.0023218214325232 0)
(1.001410309739 -0.0025576529610314 0)
(1.0016898137785 -0.0027914906613701 0)
(1.0019939157636 -0.0030226104617643 0)
(1.0023225035058 -0.0032506748997173 0)
(1.0026750944377 -0.0034748601372729 0)
(1.0030516285028 -0.0036953143891912 0)
(1.00345131177 -0.0039109743483755 0)
(1.0038743623994 -0.0041228137708576 0)
(1.004319429098 -0.0043287866833252 0)
(1.0047874350569 -0.0045313745411101 0)
(1.0052758629467 -0.0047260627285474 0)
(1.0057872236836 -0.0049188359060742 0)
(1.0063164784379 -0.005099695372909 0)
(1.0068696771997 -0.0052829156557199 0)
(1.00743630275 -0.0054460070399797 0)
(1.0080303505973 -0.0056223009046351 0)
(1.008629246646 -0.005760464105563 0)
(1.0092648927627 -0.0059375254581025 0)
(1.0098882320913 -0.0060356837076448 0)
(1.010571056011 -0.0062325307455607 0)
(1.0000004976146 -0.00017083622757394 0)
(1.0000276951053 -0.00051503128074171 0)
(1.0000804080474 -0.00085985303999978 0)
(1.000159531615 -0.0012020655501614 0)
(1.0002652822837 -0.0015406461251034 0)
(1.0003975744025 -0.0018760774086816 0)
(1.0005562076478 -0.0022091414162034 0)
(1.0007410318305 -0.0025404732733169 0)
(1.0009519206305 -0.0028703235156175 0)
(1.0011888816995 -0.0031986984345078 0)
(1.00145182166 -0.0035251155329029 0)
(1.0017407787961 -0.0038490868810186 0)
(1.0020554955733 -0.0041696482614512 0)
(1.0023960307925 -0.0044863874505315 0)
(1.0027618398987 -0.0047981461122928 0)
(1.0031531544081 -0.0051051565914801 0)
(1.003568931592 -0.0054058595095643 0)
(1.0040099339941 -0.0057016833405976 0)
(1.0044741553302 -0.005989654392142 0)
(1.0049636564885 -0.0062734446670132 0)
(1.0054743860653 -0.006546492416799 0)
(1.0060113186903 -0.0068175794930359 0)
(1.006565908817 -0.0070720829806642 0)
(1.0071495965124 -0.0073308314167571 0)
(1.007743922139 -0.0075609121913099 0)
(1.0083748605394 -0.0078109366914039 0)
(1.0090019137437 -0.0080059437860129 0)
(1.009684015372 -0.0082582572121103 0)
(1.0103318705234 -0.0083961614844706 0)
(1.0110783345318 -0.0086783540354121 0)
(1.0000004976502 -0.00021577951971201 0)
(1.0000284285596 -0.00065069259169216 0)
(1.0000825315898 -0.0010862851793921 0)
(1.0001637195909 -0.0015188802618627 0)
(1.0002722846153 -0.0019474705027918 0)
(1.000408254298 -0.0023727094887726 0)
(1.0005715251638 -0.0027955083758724 0)
(1.0007620471515 -0.0032165832056186 0)
(1.0009797560834 -0.0036361829169361 0)
(1.0012247554791 -0.0040542988717011 0)
(1.0014969870396 -0.0044703361545769 0)
(1.0017966230291 -0.0048837562920191 0)
(1.0021234175903 -0.0052933936878176 0)
(1.0024776590001 -0.0056988147003435 0)
(1.0028587317113 -0.0060985165153215 0)
(1.0032672539981 -0.0064928443960464 0)
(1.0037018731888 -0.0068796714223685 0)
(1.0041640662722 -0.0072609539149318 0)
(1.0046509960111 -0.0076326703866655 0)
(1.0051662023705 -0.0079998905674184 0)
(1.0057036752394 -0.0083537380698113 0)
(1.0062715724461 -0.0087062243609761 0)
(1.0068568622393 -0.0090374314668922 0)
(1.0074779177945 -0.0093756660013252 0)
(1.0081061199732 -0.0096760649065983 0)
(1.0087828023459 -0.010004645815961 0)
(1.0094445564635 -0.010259479319229 0)
(1.0101848766606 -0.010593068998676 0)
(1.0108630981061 -0.010772408969326 0)
(1.0116899175749 -0.011148302907839 0)
(1.000000493484 -0.00025919122004149 0)
(1.0000290950752 -0.00078183274841498 0)
(1.0000844606131 -0.0013051266854916 0)
(1.0001675193838 -0.0018252349771271 0)
(1.0002786604063 -0.0023413518230832 0)
(1.0004180582604 -0.0028543295346052 0)
(1.0005857361673 -0.0033651595398719 0)
(1.0007817731808 -0.0038745844394831 0)
(1.0010061868496 -0.0043828110229274 0)
(1.0012592036771 -0.004889808966861 0)
(1.0015408153195 -0.0053948873745378 0)
(1.0018513660205 -0.0058975139124681 0)
(1.0021906343692 -0.0063963657541584 0)
(1.0025591996256 -0.0068910507228331 0)
(1.0029563730501 -0.0073797101223065 0)
(1.0033832575293 -0.0078628392076343 0)
(1.0038381400491 -0.0083376608076303 0)
(1.0043233816511 -0.0088067499217285 0)
(1.0048351566438 -0.0092648948822189 0)
(1.0053788157769 -0.0097188127903548 0)
(1.0059460014066 -0.010156992493181 0)
(1.0065487393435 -0.010595195118119 0)
(1.0071686083547 -0.011007407783284 0)
(1.0078323625604 -0.011430525151926 0)
(1.00849917562 -0.011805914447543 0)
(1.0092288740624 -0.012219540721352 0)
(1.0099305494519 -0.012538528645204 0)
(1.0107391852612 -0.012961370826676 0)
(1.0114525702637 -0.013184996843416 0)
(1.0123745812032 -0.013665342733949 0)
(1.0000004832084 -0.00030092724702727 0)
(1.0000295962349 -0.00090802725121218 0)
(1.0000859113157 -0.0015156741727337 0)
(1.0001703721091 -0.0021201749379623 0)
(1.0002834850119 -0.0027211269006735 0)
(1.0004256050368 -0.0033196106034267 0)
(1.0005969126414 -0.0039166449041475 0)
(1.000797646057 -0.0045129415393959 0)
(1.0010279255611 -0.0051086235011407 0)
(1.001288128816 -0.0057036346240929 0)
(1.0015783142946 -0.0062972088184032 0)
(1.0018990376331 -0.0068888851214643 0)
(1.0022501184021 -0.0074772342384171 0)
(1.0026324902371 -0.0080619782138435 0)
(1.0030453957289 -0.0086408925928967 0)
(1.0034905213792 -0.0092146688113128 0)
(1.0039657552236 -0.0097797908310367 0)
(1.0044745092438 -0.0103395591757 0)
(1.005011833567 -0.010887415049595 0)
(1.0055852069902 -0.011432006691414 0)
(1.0061835787986 -0.011958830918043 0)
(1.006823483521 -0.012487985460535 0)
(1.0074803000974 -0.012986469536497 0)
(1.008190493388 -0.01350101227468 0)
(1.008899193269 -0.013957181271801 0)
(1.00968756262 -0.014463725156839 0)
(1.0104330875815 -0.0148523923391 0)
(1.0113184694765 -0.015374115062541 0)
(1.0120709050646 -0.015646021870236 0)
(1.0131011121572 -0.016243584351526 0)
(1.000000464936 -0.00034074986871025 0)
(1.0000298382317 -0.0010285637406518 0)
(1.0000866136389 -0.0017167412005737 0)
(1.0001717456416 -0.0024020591821261 0)
(1.0002858783647 -0.0030847308202446 0)
(1.0004295799611 -0.0037660965136698 0)
(1.0006032181159 -0.0044471483396123 0)
(1.0008072196575 -0.0051285090563566 0)
(1.0010418288047 -0.0058101768825819 0)
(1.0013076024072 -0.0064920690768912 0)
(1.0016046839625 -0.0071733699995708 0)
(1.0019338801298 -0.0078537632521966 0)
(1.0022950712011 -0.0085317706209497 0)
(1.0026896086564 -0.0092073104438747 0)
(1.003116677504 -0.009877786378662 0)
(1.0035786454886 -0.010544141482647 0)
(1.0040729762165 -0.011202031122007 0)
(1.0046042928341 -0.01185560218324 0)
(1.0051664116997 -0.012496784742012 0)
(1.0057692352732 -0.013136467979761 0)
(1.0063987284152 -0.013756777394201 0)
(1.0070765152766 -0.014382781807443 0)
(1.0077710822552 -0.014973541262022 0)
(1.0085297859071 -0.015586957173584 0)
(1.0092821357686 -0.016130635695725 0)
(1.0101331139754 -0.016739132531745 0)
(1.0109250848196 -0.017204112795704 0)
(1.0118938433557 -0.017835788623331 0)
(1.0126882951321 -0.018161185275262 0)
(1.0138376671822 -0.018890506370383 0)
(1.0000004374881 -0.00037836071418234 0)
(1.000029734125 -0.001142541454624 0)
(1.000086316718 -0.0019068253274119 0)
(1.0001711504787 -0.0026687980101044 0)
(1.000285035962 -0.0034295069477021 0)
(1.000428783463 -0.0041905843764952 0)
(1.0006029749198 -0.0049529405403233 0)
(1.0008082531091 -0.0057170513427254 0)
(1.0010450067658 -0.0064827510173089 0)
(1.0013139987703 -0.0072499332556727 0)
(1.0016154764264 -0.0080177636844724 0)
(1.0019505355796 -0.0087861505638566 0)
(1.0023191392134 -0.0095536312309689 0)
(1.0027231176039 -0.010320410492315 0)
(1.0031616153252 -0.011083520144986 0)
(1.0036377739836 -0.011844218858959 0)
(1.0041486215884 -0.012597248168234 0)
(1.0047001404231 -0.013347733006493 0)
(1.0052848344918 -0.014085930722225 0)
(1.0059152938073 -0.014825297249154 0)
(1.006574273703 -0.015544204390234 0)
(1.0072889900873 -0.016273350914666 0)
(1.0080204887613 -0.016962890569931 0)
(1.0088280071319 -0.017683272328636 0)
(1.0096241803528 -0.018321941560475 0)
(1.0105398445065 -0.019042342346606 0)
(1.0113794400417 -0.019591281391735 0)
(1.0124362013136 -0.020345176806236 0)
(1.0132746530725 -0.020730548500282 0)
(1.0145518389925 -0.02160762235622 0)
(1.0000004000485 -0.00041343547859123 0)
(1.0000292153608 -0.0012489799379229 0)
(1.0000848105491 -0.0020842871121291 0)
(1.0001681659908 -0.0029180948596277 0)
(1.0002802617866 -0.0037525065212197 0)
(1.0004221764495 -0.0045894794540817 0)
(1.0005947283942 -0.0054297882250857 0)
(1.0007987986267 -0.0062737055003432 0)
(1.0010349380233 -0.0071208649495128 0)
(1.0013041386044 -0.0079711426005314 0)
(1.0016067696405 -0.0088237210081132 0)
(1.0019442505361 -0.009678817882168 0)
(1.0023166505636 -0.010535057939138 0)
(1.0027263339028 -0.011393028313296 0)
(1.0031724277717 -0.012249398545207 0)
(1.0036589301999 -0.013105812813187 0)
(1.0041824383722 -0.013956025577542 0)
(1.0047504217857 -0.014806276176922 0)
(1.0053540298703 -0.0156450029386 0)
(1.0060087599416 -0.016488555735909 0)
(1.0066940117939 -0.017311191483823 0)
(1.0074429929457 -0.018149892738419 0)
(1.0082089353908 -0.018944973648751 0)
(1.009063710927 -0.019780781304602 0)
(1.0099022119492 -0.020522470543569 0)
(1.0108826227637 -0.02136536534534 0)
(1.0117695065622 -0.022006805484761 0)
(1.0129166626419 -0.022896084261359 0)
(1.013800027168 -0.023349224011662 0)
(1.0152110339536 -0.024391106524455 0)
(1.0000003518688 -0.00044564932979396 0)
(1.0000282283595 -0.0013468955128819 0)
(1.0000819433407 -0.0022474842121418 0)
(1.0001624855039 -0.0031476431876607 0)
(1.0002710325087 -0.0040507485276417 0)
(1.0004089558038 -0.004959115302277 0)
(1.0005773308614 -0.0058733310550476 0)
(1.0007772953313 -0.0067934112601021 0)
(1.0010095782926 -0.0077187569373974 0)
(1.0012754185883 -0.008649235238224 0)
(1.001575323779 -0.0095840872877966 0)
(1.0019110621172 -0.010523925702743 0)
(1.0022828343351 -0.011467542879983 0)
(1.0026935812361 -0.012416003813484 0)
(1.0031424447823 -0.013365641638625 0)
(1.0036343422072 -0.014318553325849 0)
(1.0041654676171 -0.015267459557327 0)
(1.0047448707579 -0.016219838362782 0)
(1.0053623539448 -0.017162203922963 0)
(1.0060364746514 -0.01811409648869 0)
(1.0067432313613 -0.019045361911852 0)
(1.0075220895896 -0.019999863050942 0)
(1.0083183004097 -0.020907246265856 0)
(1.009216838219 -0.021866996366996 0)
(1.0100944351436 -0.022720053447688 0)
(1.0111374898046 -0.023696339618553 0)
(1.0120697161199 -0.024439585054933 0)
(1.0133072191307 -0.025477965563629 0)
(1.0142352434227 -0.026008007794996 0)
(1.0157831152457 -0.027232390773627 0)
(1.0000002927648 -0.00047469937965723 0)
(1.0000267387293 -0.0014353644438038 0)
(1.000077615624 -0.0023948757356072 0)
(1.0001539079451 -0.0033552766379005 0)
(1.00025700308 -0.0043214207720702 0)
(1.0003885831659 -0.0052960089899354 0)
(1.0005499978149 -0.0062793925529338 0)
(1.0007426523966 -0.0072712776663682 0)
(1.0009674669039 -0.0082708055964226 0)
(1.0012259354127 -0.0092778440355746 0)
(1.0015187238011 -0.010291741340515 0)
(1.0018479611145 -0.011313587449968 0)
(1.002214012748 -0.012342435302159 0)
(1.0026204106681 -0.013379912974924 0)
(1.003066367041 -0.014422070860568 0)
(1.0035577330278 -0.015471504083766 0)
(1.0040903828416 -0.016519908804687 0)
(1.0046749535516 -0.017576073174859 0)
(1.0053000183522 -0.018624584139761 0)
(1.0059871966599 -0.019688353709118 0)
(1.0067092360162 -0.020732703547388 0)
(1.0075118764188 -0.021808761124056 0)
(1.0083325456915 -0.022834983874551 0)
(1.0092693701872 -0.023926874447133 0)
(1.0101810834606 -0.024899753443995 0)
(1.011282359564 -0.026020182156383 0)
(1.0122562650602 -0.026875160050592 0)
(1.0135813682517 -0.02807636897838 0)
(1.0145524882567 -0.028693813358707 0)
(1.0162371348382 -0.030118661963152 0)
(1.0000002234399 -0.00050032708708002 0)
(1.0000247303001 -0.0015135939462461 0)
(1.0000717794771 -0.0025251360343555 0)
(1.0001423354288 -0.0035391203384841 0)
(1.0002380003747 -0.0045620674159947 0)
(1.000360776984 -0.0055970864755148 0)
(1.0005123021729 -0.0066442454683172 0)
(1.0006942523884 -0.0077028914537107 0)
(1.0009077494995 -0.0087718832587091 0)
(1.0011545380203 -0.0098510976449145 0)
(1.0014354618857 -0.010940043535789 0)
(1.0017530010712 -0.012040363820511 0)
(1.002107735289 -0.013151477269856 0)
(1.0025037623362 -0.014275644830397 0)
(1.0029404627668 -0.015408724709853 0)
(1.003424548586 -0.016553814286944 0)
(1.0039517676011 -0.017701683478182 0)
(1.0045341690982 -0.018862390998891 0)
(1.0051594683227 -0.020018794444015 0)
(1.0058519690954 -0.021197082037674 0)
(1.0065818494328 -0.022358376511902 0)
(1.0074004020429 -0.023560869744878 0)
(1.0082383760474 -0.024712127765007 0)
(1.009205833301 -0.025943555764134 0)
(1.0101452905139 -0.027044744628492 0)
(1.011297676469 -0.028319303543949 0)
(1.0123083544749 -0.029296642429066 0)
(1.013714810875 -0.030673457971361 0)
(1.0147261882079 -0.031390201192863 0)
(1.0165437786822 -0.033032787996573 0)
(1.0000001441734 -0.00052233414628835 0)
(1.000022205103 -0.0015809708782443 0)
(1.0000644392011 -0.002637238496381 0)
(1.000127772415 -0.0036977107554636 0)
(1.0002140222396 -0.004770744335104 0)
(1.0003255143701 -0.0058598735463209 0)
(1.0004641784744 -0.0069648374764514 0)
(1.0006319588627 -0.0080845779332842 0)
(1.0008301828208 -0.0092176514528207 0)
(1.001060834629 -0.010363954254625 0)
(1.0013249478028 -0.011523207317086 0)
(1.0016253366025 -0.01269768075791 0)
(1.0019628294527 -0.013887258696405 0)
(1.0023420578808 -0.015094909552975 0)
(1.0027626577243 -0.016316389351298 0)
(1.003232117674 -0.017555314574256 0)
(1.0037462546458 -0.018801638525437 0)
(1.0043183037861 -0.020066645759126 0)
(1.0049355833696 -0.021331721523005 0)
(1.0056244805884 -0.022626123249283 0)
(1.0063537143503 -0.023907398200854 0)
(1.0071785654371 -0.02523999618399 0)
(1.008025772801 -0.026522164190163 0)
(1.0090134599302 -0.027898804845403 0)
(1.009974170742 -0.029137669194091 0)
(1.0111658732099 -0.030573345640121 0)
(1.0122107663113 -0.031687542904154 0)
(1.0136833735315 -0.033245494580585 0)
(1.0147405969707 -0.034084363111063 0)
(1.0166771732239 -0.035955587464709 0)
(1.0000000563459 -0.00054059198013239 0)
(1.000019182049 -0.0016370914079517 0)
(1.0000556476468 -0.002730505253753 0)
(1.0001103219327 -0.0038300666935367 0)
(1.0001852309529 -0.0049461140223674 0)
(1.0002830199576 -0.0060826170913232 0)
(1.0004059077253 -0.0072389420664877 0)
(1.000556098441 -0.008413583811081 0)
(1.0007351172821 -0.0096047775937526 0)
(1.0009451762815 -0.010812451675015 0)
(1.0011874924182 -0.012036584647627 0)
(1.0014652030605 -0.013280149166526 0)
(1.0017793873285 -0.014543580076729 0)
(1.0021352013126 -0.015830640062233 0)
(1.0025325516397 -0.017137048441333 0)
(1.0029796978567 -0.018467007592662 0)
(1.00347256727 -0.019809700395046 0)
(1.0040255692586 -0.021177724744926 0)
(1.0046257099936 -0.022551053116323 0)
(1.0053014246917 -0.023962163444694 0)
(1.0060201550538 -0.025365072945535 0)
(1.0068410336511 -0.026830680496318 0)
(1.0076872191377 -0.028247921345199 0)
(1.008684433249 -0.029775286578328 0)
(1.0096562333285 -0.031158865915262 0)
(1.0108765795924 -0.032764025750627 0)
(1.0119461084232 -0.034024973348603 0)
(1.013474832995 -0.035776058855094 0)
(1.0145705321637 -0.036750517724122 0)
(1.016615003424 -0.038863449699841 0)
(0.99999996075321 -0.00055504588339037 0)
(1.0000156959702 -0.0016817735406828 0)
(1.0000455044187 -0.0028046292087879 0)
(1.0000901773792 -0.0039357224606996 0)
(1.000151938915 -0.0050874925853938 0)
(1.0002337435965 -0.0062643482971029 0)
(1.0003380877297 -0.0074652411532002 0)
(1.000467421148 -0.0086881808676857 0)
(1.0006234511776 -0.0099310645475153 0)
(1.0008085996121 -0.011193863729901 0)
(1.0010242506865 -0.012476856106798 0)
(1.0012738472648 -0.01378378427892 0)
(1.001558706026 -0.015115712831989 0)
(1.0018844921717 -0.016477278981917 0)
(1.0022513769624 -0.017864232449194 0)
(1.0026683802803 -0.019281427038413 0)
(1.0031315485866 -0.020717334015668 0)
(1.003656466298 -0.022185950795332 0)
(1.0042298579005 -0.02366591769517 0)
(1.0048822165996 -0.025193072656629 0)
(1.0055797698021 -0.026717978201451 0)
(1.0063855260676 -0.028318180621338 0)
(1.0072191722426 -0.029873286190732 0)
(1.0082140660893 -0.031555673131354 0)
(1.0091849523408 -0.033089556600064 0)
(1.0104218180366 -0.034871630346629 0)
(1.0115040096455 -0.036287951137764 0)
(1.0130772484925 -0.038243409855026 0)
(1.0142002724066 -0.039364897520488 0)
(1.0163401263879 -0.04173287769614 0)
(0.9999998594248 -0.00056571465696634 0)
(1.000011794283 -0.0017150572360182 0)
(1.0000341453671 -0.0028596730974992 0)
(1.0000676070524 -0.0040147278084383 0)
(1.0001145847863 -0.0051948539459932 0)
(1.0001783259239 -0.0064048943922343 0)
(1.0002615862772 -0.0076433471552527 0)
(1.0003670403341 -0.0089077018568995 0)
(1.0004965555087 -0.010195502520454 0)
(1.0006527387425 -0.011506772415376 0)
(1.000837117751 -0.012842124489801 0)
(1.0010534143268 -0.014206128391253 0)
(1.0013031589297 -0.015600549041042 0)
(1.0015924976245 -0.017030969181454 0)
(1.0019218466239 -0.018493235331358 0)
(1.0023009602845 -0.019992916220743 0)
(1.0027259971065 -0.02151783656435 0)
(1.0032136966308 -0.02308347840545 0)
(1.0037505201498 -0.024667239518464 0)
(1.0043690015581 -0.026308455235048 0)
(1.0050342127605 -0.02795432352183 0)
(1.0058130113317 -0.029689233824724 0)
(1.0066217510357 -0.031383491305874 0)
(1.0076013800247 -0.033223652300631 0)
(1.0085580855263 -0.03491192287458 0)
(1.0097978165809 -0.036876888370625 0)
(1.0108789986125 -0.038455788903376 0)
(1.0124830307503 -0.04062554922195 0)
(1.0136201492568 -0.04190443819098 0)
(1.0158396954041 -0.044538231026477 0)
(0.99999975386033 -0.0005726852734985 0)
(1.0000075361177 -0.0017371935486909 0)
(1.0000217377029 -0.0028960555553813 0)
(1.0000429381896 -0.0040676281117805 0)
(1.0000737054496 -0.0052688046855343 0)
(1.0001175573027 -0.0065048509033132 0)
(1.0001774845335 -0.0077737760528305 0)
(1.00025635924 -0.0090725174266154 0)
(1.0003561821124 -0.010398253649303 0)
(1.0004797142465 -0.011751063606184 0)
(1.000628597678 -0.013131926404877 0)
(1.0008067966437 -0.014546281184199 0)
(1.0010160236345 -0.015996655386115 0)
(1.0012628625847 -0.017489633693489 0)
(1.0015479460299 -0.019021227139945 0)
(1.0018817165908 -0.020597774106758 0)
(1.0022604309183 -0.02220652869299 0)
(1.0027019337509 -0.02386453116579 0)
(1.0031924391864 -0.025548036645727 0)
(1.0037664548972 -0.027300001402615 0)
(1.0043879776983 -0.0290643613396 0)
(1.0051275927192 -0.030932536566513 0)
(1.005898526627 -0.032765595912532 0)
(1.0068491167825 -0.034764537461876 0)
(1.0077773896859 -0.03660958403147 0)
(1.0090050385195 -0.038761613357279 0)
(1.0100700888718 -0.040508866754807 0)
(1.0116896291438 -0.042901243175726 0)
(1.0128257038497 -0.04434691198725 0)
(1.0151068906161 -0.04725512013023 0)
(0.99999964500879 -0.00057610996247703 0)
(1.0000029862995 -0.0017486068799299 0)
(1.0000084750658 -0.0029144834191305 0)
(1.0000165445024 -0.0040953939144463 0)
(1.0000299118541 -0.0053105145566831 0)
(1.000052336795 -0.0065655128117889 0)
(1.0000870177431 -0.0078578796005553 0)
(1.0001369904738 -0.00918396937677 0)
(1.0002043602642 -0.010540587435938 0)
(1.0002920043133 -0.011927865260692 0)
(1.0004016504742 -0.013347177763307 0)
(1.0005374561017 -0.014804856287092 0)
(1.0007012826948 -0.01630424954289 0)
(1.0009000849665 -0.017852974414929 0)
(1.0011346860636 -0.019447283370236 0)
(1.0014161349182 -0.021094313443492 0)
(1.001740791103 -0.022780848654044 0)
(1.0021274930811 -0.024525530043612 0)
(1.0025622757812 -0.026303597726656 0)
(1.0030814292784 -0.028161716964187 0)
(1.0036480807566 -0.030040690703863 0)
(1.0043361782848 -0.032039122355192 0)
(1.0050563139071 -0.034008973061924 0)
(1.0059634727321 -0.036165829140582 0)
(1.0068486815191 -0.03816818151553 0)
(1.0080475936297 -0.040509362214401 0)
(1.0090812513125 -0.04242853841991 0)
(1.0106966950241 -0.045050860905813 0)
(1.0118189517522 -0.046668635328778 0)
(1.0141351582179 -0.049858885588187 0)
(0.99999953535986 -0.00057617965527777 0)
(0.99999820683718 -0.0017498944204008 0)
(0.99999453469793 -0.0029159654071228 0)
(0.9999888003416 -0.0040993880786541 0)
(0.99998383603081 -0.0053216450465814 0)
(0.99998360876702 -0.0065887796089524 0)
(0.99999149812367 -0.0078977394708662 0)
(1.0000106632463 -0.0092442626113301 0)
(1.0000432876042 -0.010624778328407 0)
(1.0000923127932 -0.01203945269879 0)
(1.0001595338823 -0.013490086774988 0)
(1.0002492303396 -0.014983895882332 0)
(1.0003633995301 -0.016525121077095 0)
(1.000509255951 -0.01812239993732 0)
(1.0006878243037 -0.019772340347686 0)
(1.000910597521 -0.021482845271979 0)
(1.0011741216609 -0.023240391999079 0)
(1.0014979726213 -0.025065169493138 0)
(1.0018682366759 -0.026931618938351 0)
(1.0023225215023 -0.028890076996439 0)
(1.0028236300295 -0.030878472188377 0)
(1.0034479495623 -0.033002597175098 0)
(1.0041047489994 -0.035105627300774 0)
(1.0049535505758 -0.037417681401101 0)
(1.0057817426013 -0.039576023356163 0)
(1.0069333292022 -0.042106096524639 0)
(1.0079216894659 -0.0441990178967 0)
(1.0095087121465 -0.047053504727746 0)
(1.0106071588371 -0.048855244457246 0)
(1.0129252438493 -0.052320023692068 0)
(0.99999942625629 -0.00057312985954814 0)
(0.99999325188366 -0.0017417379607305 0)
(0.99998009573937 -0.0029016483855812 0)
(0.99996006988339 -0.0040812138705189 0)
(0.99993609930732 -0.0053041968109931 0)
(0.99991230896845 -0.0065769903854322 0)
(0.99989223745398 -0.0078959835103413 0)
(0.99987911801152 -0.0092562587421563 0)
(0.99987519921719 -0.010653882837444 0)
(0.99988341973345 -0.012089025499672 0)
(0.99990564643592 -0.01356394803764 0)
(0.99994616096989 -0.01508668687264 0)
(1.0000071256422 -0.016662467184178 0)
(1.0000958182209 -0.01830085647624 0)
(1.0002135786081 -0.019999020841158 0)
(1.0003720323277 -0.021765468624596 0)
(1.000568191868 -0.023586717194839 0)
(1.0008218390234 -0.025484192015017 0)
(1.001119670149 -0.027432067015035 0)
(1.0014996615279 -0.029483843901894 0)
(1.0019253927937 -0.031575363679284 0)
(1.0024739425956 -0.033818934061709 0)
(1.0030556322968 -0.036050069548886 0)
(1.0038308960134 -0.03851241765675 0)
(1.0045891085513 -0.040824168620379 0)
(1.0056737443749 -0.043538941930991 0)
(1.006604752147 -0.045809788015704 0)
(1.0081349196569 -0.048884639177264 0)
(1.0092044839999 -0.050895693861313 0)
(1.011487088285 -0.054614016768077 0)
(0.99999931434344 -0.00056722915287499 0)
(0.99998817722922 -0.0017249374187611 0)
(0.99996533274926 -0.0028728456271212 0)
(0.99993072216331 -0.0040426406790218 0)
(0.9998873220646 -0.0052603361797027 0)
(0.9998393590836 -0.0065326679776571 0)
(0.99979053008306 -0.0078554602522794 0)
(0.99974407589333 -0.0092230917804223 0)
(0.99970229817478 -0.010631288662018 0)
(0.99966805847927 -0.012080175345229 0)
(0.99964335233893 -0.01357251955649 0)
(0.99963229146795 -0.01511707128774 0)
(0.99963729857779 -0.016720169906485 0)
(0.99966537317588 -0.018392108635323 0)
(0.99971844780337 -0.020130929966687 0)
(0.99980768884189 -0.021945346650397 0)
(0.99993125356843 -0.023822575031881 0)
(1.0001080450623 -0.025784457460178 0)
(1.0003267182071 -0.027806138483202 0)
(1.0006235978311 -0.029942756552944 0)
(1.0009654893854 -0.032130199755304 0)
(1.0014266631613 -0.034484825824509 0)
(1.0019227361673 -0.036837736993664 0)
(1.0026094383517 -0.039442715318347 0)
(1.0032852953015 -0.041903265738605 0)
(1.0042845837109 -0.044797025924361 0)
(1.0051448851191 -0.047243380694579 0)
(1.0065963666891 -0.050535847192885 0)
(1.0076209157203 -0.052753166049204 0)
(1.0098401751026 -0.056715386500435 0)
(0.99999919584166 -0.00055881778062681 0)
(0.9999830936391 -0.0017005495258793 0)
(0.99995055452608 -0.002831245355294 0)
(0.99990130998677 -0.0039858517992941 0)
(0.9998383103542 -0.0051926409686417 0)
(0.9997658327905 -0.0064587132353542 0)
(0.99968777340903 -0.0077792553089673 0)
(0.99960732506413 -0.0091480131251504 0)
(0.99952683067541 -0.010560452036195 0)
(0.99944899940448 -0.012016549672701 0)
(0.99937601417621 -0.013519571865649 0)
(0.99931161662834 -0.015078835353224 0)
(0.9992586444898 -0.016701951236955 0)
(0.99922340546866 -0.018399711857943 0)
(0.99920886842685 -0.020171504289037 0)
(0.99922487808143 -0.022025665675926 0)
(0.99927185634621 -0.02395108516511 0)
(0.99936597013793 -0.025968535704432 0)
(0.99950035638991 -0.028056259112512 0)
(0.99970578995214 -0.030267902525782 0)
(0.99995756863494 -0.032543865128975 0)
(1.000319585134 -0.034998875108797 0)
(1.0007225956423 -0.0374670022536 0)
(1.0013045743186 -0.040204828199582 0)
(1.0018890977108 -0.042807168278944 0)
(1.0027826999733 -0.045877321714051 0)
(1.0035621302055 -0.048485700978603 0)
(1.0049151909988 -0.052016422300765 0)
(1.0058874293497 -0.054403532728679 0)
(1.0080111371619 -0.058653426475969 0)
(0.99999904380929 -0.00054837305234173 0)
(0.9999781389447 -0.0016701369467305 0)
(0.99993624440493 -0.0027794088389402 0)
(0.99987264345516 -0.0039142388352755 0)
(0.99979012015197 -0.0051051757053667 0)
(0.99969311383539 -0.0063599471984288 0)
(0.99958568070938 -0.0076724692862044 0)
(0.99947079089707 -0.0090360656501747 0)
(0.99935096848256 -0.010446283533126 0)
(0.99922886060743 -0.011902965333606 0)
(0.99910681321764 -0.01340987249885 0)
(0.99898800680023 -0.014976727815055 0)
(0.99887568422875 -0.016612466752629 0)
(0.99877514348188 -0.018328162745324 0)
(0.99869069058514 -0.020125069461858 0)
(0.99863025515307 -0.022010724992479 0)
(0.99859755307016 -0.023976980388022 0)
(0.99860431514293 -0.026041934869496 0)
(0.99865077599126 -0.028189834875833 0)
(0.9987575415951 -0.030468252029334 0)
(0.99891524401852 -0.032829336236718 0)
(0.99916605581992 -0.03537533261118 0)
(0.99947299710287 -0.037959828060084 0)
(0.99992997334348 -0.040820247104775 0)
(1.0004238536952 -0.0435714629706 0)
(1.0011782708312 -0.046813958060681 0)
(1.0018833165569 -0.049584799988902 0)
(1.0030913949751 -0.053403754693971 0)
(1.004038276414 -0.055883587919346 0)
(1.0060266328518 -0.060703374631162 0)
(0.99999880435418 -0.00053704632586667 0)
(0.99997295566001 -0.001637143953327 0)
(0.99992215293896 -0.0027234756026429 0)
(0.99984463320571 -0.0038373505689708 0)
(0.99974256367001 -0.005011380361402 0)
(0.99962129480653 -0.0062544850585547 0)
(0.99948513388713 -0.0075589001332735 0)
(0.99933587789088 -0.0089167986429892 0)
(0.999176355666 -0.010323528212543 0)
(0.99900952379451 -0.011779061378728 0)
(0.99883787522606 -0.013288010922402 0)
(0.99866410485664 -0.014860773852728 0)
(0.99849162943207 -0.016507899893054 0)
(0.99832471107015 -0.018240788881783 0)
(0.99816853504117 -0.02006286186727 0)
(0.99802928777881 -0.021980483815652 0)
(0.99791357770528 -0.023989420692001 0)