/*--------------------------------*- C++ -*----------------------------------*\
| =========                 |                                                 |
| \\      /  F ield         | OpenFOAM: The Open Source CFD Toolbox           |
|  \\    /   O peration     | Version:  2112                                  |
|   \\  /    A nd           | Website:  www.openfoam.com                      |
|    \\/     M anipulation  |                                                 |
\*---------------------------------------------------------------------------*/
FoamFile
{
    version     2.0;
    format      ascii;
    arch        "LSB;label=32;scalar=64";
    class       surfaceScalarField;
    location    "2.4";
    object      phi;
}
// * * * * * * * * * * * * * * * * * * * * * * * * * * * * * * * * * * * * * //

dimensions      [0 3 -1 0 0 0 0];

oriented        oriented;

internalField   nonuniform List<scalar> 
43645
(
0.39512456499468
-5.6919116165196e-06
0.39514115883212
-1.659381507018e-05
0.39516821859424
-2.7059737963543e-05
0.39520527440208
-3.7055782915881e-05
0.39525179809498
-4.6523667869645e-05
0.39530722456303
-5.5426443278385e-05
0.39537105550039
-6.3830913033075e-05
0.39544292965201
-7.1874127836312e-05
0.39552254427054
-7.9614595344675e-05
0.39560950895335
-8.6964660226957e-05
0.3957034070012
-9.3898025896528e-05
0.39580402209387
-0.00010061507133929
0.39591132397378
-0.00010730185921853
0.39602514151695
-0.00011381752309401
0.39614489354408
-0.00011975200766481
0.39626972009602
-0.00012482653304626
0.39639890056281
-0.00012918044848162
0.39653251154957
-0.00013361096896661
0.39667178160638
-0.00013927003954356
0.39681927578756
-0.00014749416435909
0.39697821924235
-0.00015894343840932
0.3971520676769
-0.00017384841854823
0.39734314704281
-0.00019107935028197
0.39755296140462
-0.0002098143464891
0.39778059871445
-0.0002276372948036
0.39802498085098
-0.00024438212175452
0.39828193874075
-0.00025695787523582
0.39854988135757
-0.00026794260265813
0.39882225822956
-0.00027237685833795
-0.000278021362308
0.39910027960554
0.37294797283022
-1.1109965880449e-05
0.37296388348542
-3.2504433091942e-05
0.37298992430598
-5.3100520702789e-05
0.37302561810807
-7.2749547265237e-05
0.37307049479828
-9.1400320834931e-05
0.37312406305971
-0.00010899466815747
0.3731858164039
-0.0001255842214592
0.37325530235305
-0.00014136004205414
0.37333216616258
-0.0001564783708129
0.37341610755313
-0.0001709060175784
0.37350678649662
-0.0001845769371009
0.37360389228406
-0.00019772082737101
0.37370726192721
-0.00021067147186524
0.3738167952779
-0.0002233508441601
0.37393212597436
-0.0002350826753769
0.37405251096815
-0.00024521149890089
0.37417711129406
-0.00025378074727373
0.37430571608065
-0.00026221572917033
0.37443931276756
-0.00027286670079392
0.37458044133352
-0.00028862270529238
0.37473253230267
-0.00031103438315255
0.3748993406674
-0.00034065675939676
0.37508344073028
-0.0003751793897982
0.37528637835218
-0.00041275194544559
0.37550713995073
-0.0004483988708375
0.37574441900789
-0.0004816611567448
0.37599390810626
-0.00050644695178184
0.37625382050716
-0.00052785498230523
0.37651771200695
-0.00053626833787986
-0.00054710446036028
0.37678679512552
0.35201634114876
-1.6553552424313e-05
0.35203223745747
-4.840070292285e-05
0.35205817615046
-7.9039174661951e-05
0.35209369096019
-0.00010826431839009
0.3521383177235
-0.00013602704629441
0.35219156291058
-0.0001622398182492
0.35225289381177
-0.00018691508660199
0.35232184352842
-0.0002103097236085
0.35239807843587
-0.00023271324414249
0.35248129956845
-0.00025412711702466
0.35257115602543
-0.00027443336195671
0.35266732382558
-0.00029388859637709
0.35276961543867
-0.00031296305482009
0.35287792030577
-0.00033165568206361
0.3529919076353
-0.00034906997665885
0.35311087235244
-0.00036417618865675
0.35323395932467
-0.00037686769296836
0.35336089419631
-0.00038915057502012
0.3534925802688
-0.00040455274821989
0.35363148431665
-0.00042752672870385
0.35378098880642
-0.00046053884907575
0.35394486005526
-0.00050452798487624
0.3541256972801
-0.00055601659175082
0.35432508259075
-0.00061213723355695
0.35454195955514
-0.00066527581306673
0.35477499188839
-0.00071469346808611
0.35501974001218
-0.00075119505395263
0.35527443764427
-0.0007825525932426
0.3555324620952
-0.0007942927686639
-0.00080977089912827
0.35579512855455
0.33225954673465
-2.2056293195998e-05
0.33227560714854
-6.446108137508e-05
0.33230179088274
-0.00010522287326275
0.33233762903474
-0.00014410243515405
0.33238265247611
-0.00018105045310406
0.33243633952947
-0.0002159268378209
0.33249812877721
-0.00024870430140355
0.33256754421588
-0.00027972513019447
0.33264423864187
-0.00030940763895656
0.3327278978074
-0.00033778625228008
0.33281817681217
-0.00036471233740047
0.33291477915073
-0.0003904909065137
0.33301754294521
-0.00041572682181642
0.33312636223199
-0.0004404749422308
0.33324090239979
-0.00046361011873707
0.33336046868808
-0.00048374245200943
0.33348421088234
-0.00050060986307752
0.33361182587763
-0.00051676554684416
0.33374412404528
-0.00053685089306285
0.33388344885722
-0.00056685151838135
0.33403306429027
-0.0006101542604048
0.33419669093114
-0.00066815460444326
0.33437690336558
-0.00073622900530444
0.33457531450122
-0.00081054834860555
0.33479082634725
-0.00088078763880206
0.3350221109609
-0.00094597806165394
0.33526460165368
-0.0009936857268591
0.33551660687294
-0.0010345577930502
0.33577135066383
-0.0010490365409929
-0.0010689500859133
0.33603052986969
0.31361166496326
-2.766384532739e-05
0.3136280186588
-8.0814744463976e-05
0.3136546646545
-0.0001318688364955
0.31369112791183
-0.00018056566044896
0.31373692452432
-0.00022684703425061
0.31379152064052
-0.00027052292346545
0.31385436051699
-0.00031154414816854
0.31392494085967
-0.0003503054440258
0.31400285316868
-0.00038731992002479
0.31408773994511
-0.00042267300166476
0.31417925395804
-0.00045622632420716
0.3142771085147
-0.0004883454379345
0.31438112804725
-0.00051974633002376
0.31449119245674
-0.00055053932820751
0.3146069896855
-0.00057940732480436
0.31472787330174
-0.00060462604629936
0.31485300271846
-0.00062573925854724
0.31498202754789
-0.0006457903556279
0.31511568764278
-0.00067051096786938
0.3152563328492
-0.00070749670518365
0.31540732046377
-0.00076114185578577
0.315572550308
-0.00083338442979689
0.31575468819706
-0.00091836687579014
0.31595535007421
-0.0010112102073745
0.31617316594184
-0.0010986034882218
0.31640655029988
-0.0011793624015821
0.31665044860127
-0.0012375840102261
0.3169031049312
-0.001287214105246
0.31715734642795
-0.0013032780207472
-0.0013270324551794
0.31741542881488
0.29601043245281
-3.3394409149432e-05
0.29602713457505
-9.7516836542684e-05
0.29605433066174
-0.00015906489304641
0.2960915357876
-0.00021777075658465
0.2961382542258
-0.00027356544335981
0.29619393903596
-0.0003262077052446
0.2962579929745
-0.00037559805909494
0.29632987526983
-0.00042218771252055
0.29640915995965
-0.00046660458382876
0.29649549453019
-0.00050900754700639
0.29658855683412
-0.00054928860377783
0.29668810716403
-0.0005878957443006
0.29679401525736
-0.00062565440063671
0.29690617582537
-0.00066269987426955
0.2970242599607
-0.00069749143893461
0.2971476125337
-0.00072797859877571
0.29727541016845
-0.00075353687342335
0.29740733605346
-0.00077771622132267
0.29754411130681
-0.00080728620241083
0.29768799101458
-0.00085137639456918
0.29784211002491
-0.00091526084810946
0.29801011604603
-0.0010013904331961
0.29819438015481
-0.001102630967091
0.29839641502212
-0.0012132450573789
0.29861475374028
-0.0013169421892061
0.29884807889132
-0.0014126875354969
0.29909134314595
-0.0014808482477903
0.29934335641834
-0.0015392273608186
0.29959667012933
-0.0015565917155621
-0.0015846686237365
0.29985430631484
0.279397083281
-3.9243144061045e-05
0.2794141184782
-0.00011455200667008
0.27944183914241
-0.00018678553025287
0.27947975660233
-0.00025568818992949
0.2795273751598
-0.00032118397484437
0.27958412320482
-0.00038295572494571
0.27964941052229
-0.0004408853519449
0.27972269408682
-0.00049547125316366
0.27980349261798
-0.00054740309185647
0.27989137625679
-0.00059689116343681
0.2799859947909
-0.00064390711626599
0.28008713439916
-0.00068903533169417
0.28019469940818
-0.00073321938952615
0.28030858647035
-0.00077658691700028
0.28042844370864
-0.00081734865844253
0.28055365057798
-0.00085318544993813
0.28068352644769
-0.0008834127254936
0.28081794591713
-0.00091213567361863
0.28095765883231
-0.00094699910084647
0.28110464548892
-0.00099836303478502
0.28126144137965
-0.0010720567227228
0.28143104655371
-0.0011709955913528
0.28161533944365
-0.0012869238412698
0.28181583018867
-0.0014137357867287
0.28203137367921
-0.0015324856641026
0.28226144593523
-0.0016427597758745
0.2825016236606
-0.0017210259574528
0.2827515843173
-0.0017891880019845
0.28300395203004
-0.0018089594132716
-0.00184316446084
0.28326244788305
0.26371615601983
-4.5189690061335e-05
0.26373347168639
-0.0001318676485303
0.26376163087845
-0.00021494469767918
0.26380013964153
-0.00029419692874789
0.26384847934457
-0.00036952365413313
0.26390607361908
-0.00044054997626565
0.26397230790898
-0.00050711961925856
0.26404660844643
-0.00056977176866034
0.26412847578641
-0.00062927041051273
0.26421748859484
-0.00068590395120764
0.26431333185589
-0.00073975035732125
0.26441584555013
-0.00079154900660528
0.26452496897613
-0.00084234279683724
0.26464060482961
-0.00089222275241996
0.26476240862414
-0.00093915243547884
0.26488981042467
-0.00098058723353094
0.26502220062745
-0.0010158029118124
0.26515949720741
-0.0010494322375671
0.26530239549108
-0.001089897368844
0.26545274896661
-0.0011487164949799
0.26561289544415
-0.0012322031851531
0.26578567721933
-0.001343777351623
0.26597279881859
-0.0014740454257248
0.26617572265285
-0.0016166596062717
0.26639319000771
-0.0017499530042361
0.26662477281218
-0.0018743425656124
0.26686596745557
-0.0019622205860322
0.26711675342258
-0.0020399739543214
0.26736966015946
-0.0020618661359067
-0.00210241119314
0.26762890690694
0.24891529798469
-5.1194963573779e-05
0.24893277463861
-0.00014934428050208
0.24896117709884
-0.00024334713603712
0.24900000881482
-0.00033302862317835
0.24904877138593
-0.00041828620413828
0.24910688021015
-0.00049865877987342
0.24917370490025
-0.00057394428924979
0.24924865659652
-0.00064472344537362
0.24933122957235
-0.00071184336732577
0.24942099875574
-0.00077567311616554
0.24951763420656
-0.00083638579026156
0.24962096863732
-0.00089488342006761
0.24973098025536
-0.00095235439812184
0.24984765511789
-0.0010088975987372
0.24997070885616
-0.0010622061580115
0.25009957045363
-0.0011094488157505
0.25023360184921
-0.0011498342925169
0.25037276946621
-0.0011885998400844
0.25051790741246
-0.0012350353008844
0.25067104316581
-0.0013018522343892
0.25083452163829
-0.001395681643835
0.25101098428963
-0.0015202399893375
0.25120164068722
-0.0016647018097195
0.25140748752841
-0.0018225064339319
0.25162676998528
-0.0019692354474938
0.25185910004105
-0.0021066726077309
0.25209994117972
-0.0022030617108992
0.25235007895019
-0.0022901117110929
0.25260205149886
-0.0023138386711835
-0.0023617268657147
0.25286136718581
0.23494510472307
-5.7212107524243e-05
0.23496261278017
-0.00016685231780552
0.23499105036162
-0.00027178469771592
0.23502992375929
-0.00037190200135686
0.23507873141504
-0.00046709384074622
0.2351368995795
-0.00055682692559057
0.23520379088059
-0.00064083557199664
0.2352788045483
-0.0007197370952004
0.2353614241498
-0.00079446295137969
0.23545121936437
-0.00086546831378229
0.23554787228391
-0.00093303869329405
0.23565125428726
-0.000998265407433
0.23576140842107
-0.0010625085163721
0.23587838999097
-0.0011258791535797
0.23600194622053
-0.0011857623729095
0.23613151000624
-0.0012390125872313
0.23626646854551
-0.0012847928178681
0.23640689444598
-0.0013290257269998
0.23655374959512
-0.001381890436687
0.23670910184977
-0.0014572044759662
0.23687507978101
-0.0015616595621014
0.23705389860503
-0.0016990588005602
0.23724620025252
-0.0018570034444077
0.23745261578764
-0.0020289219563114
0.23767123965983
-0.0021878593068346
0.23790205714719
-0.0023374900822187
0.23814094627356
-0.0024419508241998
0.23838960129061
-0.0025387667151655
0.23864074832054
-0.0025649856883761
-0.0026219934154146
0.23890101488401
0.22175894530601
-6.3187606497659e-05
0.22177632611986
-0.00018423311397982
0.22180453759339
-0.00029999615357773
0.22184309604379
-0.00041046043430933
0.22189150868621
-0.00051550646598836
0.22194920841608
-0.00061452663862089
0.22201557205665
-0.0007071991960389
0.22208999090322
-0.00079415592561951
0.2221719378821
-0.00087640991444432
0.22226099842504
-0.00095452884133148
0.22235689200004
-0.0010289322532519
0.22245953268776
-0.0011009060805576
0.22256899520817
-0.0011719710225327
0.22268536353079
-0.001242247462376
0.22280844159182
-0.001308840420428
0.2229377735146
-0.0013683444969061
0.22307287122025
-0.0014198905106388
0.22321387782354
-0.0014700323177513
0.2233616935758
-0.0015297061765513
0.22351821690594
-0.0016137277939662
0.22368534376019
-0.0017287864042639
0.22386513349364
-0.0018788485220779
0.22405815730795
-0.0020500272467363
0.22426513736222
-0.002235901998658
0.22448427261243
-0.00240699454497
0.22471573984349
-0.0025689573011573
0.22495548040918
-0.0026816913775337
0.22520538586488
-0.0027886721585618
0.22545805271678
-0.0028176525281276
-0.0028845253702548
0.22572058468485
0.20931280832649
-6.9063967561158e-05
0.20932988822902
-0.0002013130004762
0.20935760040245
-0.00032770831094366
0.20939547260559
-0.00044833262154636
0.20944302950838
-0.00056306335308167
0.20949972206145
-0.00067121917625433
0.20956493722093
-0.00077241434029931
0.20963807235725
-0.00086729104703758
0.20971860140059
-0.00095693894313659
0.20980612297815
-0.0010420504045975
0.20990039632885
-0.0011232055899337
0.21000138362432
-0.0012018933623988
0.21010918532934
-0.0012797727141908
0.21022390797977
-0.0013569700998365
0.21034542726041
-0.0014303596883346
0.21047342997628
-0.0014963472004272
0.21060758097357
-0.0015540414957585
0.21074809254296
-0.0016105438752989
0.21089578725184
-0.0016774008737094
0.21105239079578
-0.0017703313264328
0.21121961678955
-0.0018960123865883
0.21139945924466
-0.0020586909659153
0.2115925116646
-0.0022430796553189
0.21179964661952
-0.0024430369422962
0.21201912260482
-0.0026264705188007
0.21225125745034
-0.0028010921351819
0.21249187422032
-0.0029223081357225
0.21274304351455
-0.0030398414410512
0.21299706087317
-0.0030716698750576
-0.0031491110172584
0.21326164653297
0.19756515618654
-7.4783610069391e-05
0.19758177156676
-0.00021792836606838
0.19760871617047
-0.00035465289994699
0.19764553714896
-0.00048515358545719
0.19769177671136
-0.00060930290102797
0.1977469108155
-0.00072635326616184
0.19781034739875
-0.0008358509094721
0.19788149097951
-0.00093843461398665
0.19795981691233
-0.001035264862319
0.19804494607545
-0.0011271795544031
0.19813668558835
-0.0012149450897113
0.19823504784369
-0.0013002556049633
0.19834016721788
-0.0013848920758179
0.19845218574536
-0.0014689886151052
0.19857105950966
-0.0015492334406182
0.19869661074136
-0.0016218984204585
0.19882865892466
-0.0016860896675515
0.19896750717912
-0.0017493921185656
0.19911396247445
-0.001823856157932
0.19926962135381
-0.0019259901949483
0.19943603496582
-0.0020624259877601
0.19961505805998
-0.0022377140494239
0.19980721571035
-0.0024352372949399
0.20001341689278
-0.0026492381140527
0.20023194956769
-0.0028450031828167
0.20046331794674
-0.0030324605033032
0.20070334307515
-0.0031623332528704
0.200954445056
-0.0032909434106358
0.20120872726533
-0.0033259520730842
-0.0034149866691683
0.2014746029297
0.18647678622408
-8.0292451140698e-05
0.18649277576746
-0.00023391789581196
0.18651869679929
-0.0003805739180265
0.18655411559604
-0.00052057236855481
0.1865985968071
-0.00065378409851238
0.18665164213685
-0.00077939858252074
0.18671268587517
-0.00089689463450327
0.18678114818106
-0.0010068969068274
0.18685652021693
-0.0011106368852735
0.18693845345618
-0.0012091127810221
0.18702680292104
-0.0013032945420989
0.18712163051351
-0.001395083185281
0.18722310920024
-0.001486370750565
0.18733141930072
-0.0015772987039364
0.18744659213346
-0.0016644062618649
0.18756856904645
-0.0017438753223022
0.18769732010681
-0.001814840716891
0.18783324444249
-0.0018853164435669
0.18797717619166
-0.0019677878964993
0.18813060198393
-0.0020794159769073
0.18829495825367
-0.0022267822471983
0.18847190995772
-0.0024146657433795
0.18866193902513
-0.0026252663521589
0.1888658851791
-0.0028531842579284
0.18908213367976
-0.0030612516731351
0.18931133902026
-0.0032616658334225
0.18954943678632
-0.0034004310081523
0.18979923518291
-0.0035407417963875
0.19005279865349
-0.0035795155326738
-0.0036813640633434
0.19031917605987
0.17601069825909
-8.5541937953363e-05
0.1760259158457
-0.00024913546949848
0.17605057853663
-0.00040523659588994
0.17608427616187
-0.0005542699807898
0.17612660104473
-0.0006961089684274
0.17617708191439
-0.00082987943940799
0.17623518035892
-0.00095499306636747
0.17630034341567
-0.0010720599511334
0.17637209052463
-0.0011823839819199
0.17645009739525
-0.0012871196396062
0.17653425750657
-0.0013874546415283
0.17662467657613
-0.0014855022432619
0.17672156958073
-0.001583263743726
0.17682516675713
-0.0016808958692278
0.17693558470327
-0.0017748241970362
0.1770528862379
-0.0018611768463214
0.1771771844639
-0.0019391389323958
0.17730896899999
-0.0020171009695151
0.17744910449314
-0.0021079233795974
0.17759897721315
-0.0022292886871873
0.17775993258476
-0.0023877376090993
0.17793342207727
-0.0025881552264405
0.17811994094818
-0.0028117852135154
0.17832014731938
-0.0030533906196977
0.17853272884882
-0.0032738331928798
0.17875825104308
-0.0034871880179108
0.17899315836302
-0.0036353383178506
0.17924032996869
-0.0037879133916614
0.17949211971847
-0.0038313052717646
-0.0039474671782239
0.17975822284539
0.16613196949053
-9.0489436659031e-05
0.16614629192457
-0.00026345789104275
0.1661694973371
-0.00042844199578016
0.16620120316392
-0.00058597579503486
0.16624103219593
-0.00073593798794624
0.16628854173549
-0.00087738896667368
0.16634322305013
-0.0010096743688502
0.16640455360069
-0.0011333904898036
0.16647207184291
-0.0012499022124218
0.16654548781042
-0.0013605355957179
0.1666247341142
-0.0014667009340748
0.16670996011024
-0.0015707282284081
0.16680142593885
-0.0016747295615805
0.16689941536146
-0.0017788852814256
0.16700413087284
-0.0018795396981469
0.16711575111627
-0.001972797079835
0.16723451911883
-0.0020579069251699
0.16736100645969
-0.0021435883009787
0.167496094819
-0.0022430117296158
0.16764108027888
-0.0023742741381513
0.16779720864462
-0.0025438659659796
0.16796575956241
-0.0027567061356654
0.16814723860948
-0.0029932642519394
0.1683421757846
-0.0032483277863131
0.1685496341717
-0.0034812915711791
0.1687699887438
-0.0037075425810874
0.16900057078895
-0.003865920353494
0.16924372620795
-0.0040310688008505
0.16949306823571
-0.004080647289193
-0.0042125524354114
0.16975815350476
0.15680764012491
-9.5100859993684e-05
0.15682097047024
-0.00027678822409859
0.15684255747914
-0.00045002899228706
0.15687204965986
-0.0006154679635213
0.15690910103074
-0.00077298934674471
0.1569532999981
-0.00092158792225648
0.15700416909743
-0.0010605434566475
0.15706122154492
-0.0011904429261432
0.15712402865702
-0.0013127093136536
0.15719232635326
-0.0014288332815035
0.15726607799034
-0.0015404525609505
0.15734546653657
-0.0016501167648137
0.15743079461578
-0.0017600576311535
0.15752240143589
-0.0018704920922719
0.15762057903321
-0.001977717286362
0.15772561487298
-0.002077832910871
0.15783786614558
-0.0021701581891903
0.1579579660742
-0.0022636882214327
0.15808679641588
-0.0023718420632684
0.15822556532857
-0.0025130430432356
0.15837542225798
-0.0026937228878885
0.15853753271189
-0.0029188165824118
0.15871241725907
-0.0031681487919154
0.15890059943208
-0.0034365099522542
0.15910145608254
-0.0036821482142525
0.15931534719993
-0.00392143369086
0.15954033447137
-0.0040909076165992
0.15977835737018
-0.0042690916907657
0.16002445731063
-0.0043267472198976
-0.0044754189570325
0.16028732384386
0.14800660082224
-9.9350740640065e-05
0.14801886502755
-0.00028905241704533
0.14803871569399
-0.0004698796463473
0.14806582965903
-0.00064258191650216
0.14809989307575
-0.0008070527517627
0.14814052403754
-0.00096221887285875
0.14818727688403
-0.0011072962924172
0.14823970129077
-0.0012428673227666
0.14829741054365
-0.0013704185568917
0.14836017536209
-0.0014915980908874
0.14842798516061
-0.0016082623508001
0.1485010406524
-0.0017231722484217
0.14857967548901
-0.0018386924598512
0.14866428296599
-0.0019550995617447
0.1487552527403
-0.0020686870533729
0.14885297583283
-0.002175555996503
0.14895789951376
-0.0022750818634039
0.14907067414273
-0.0023764628441125
0.14919213966839
-0.0024933075828426
0.14932340138259
-0.0026443047518036
0.14946551897389
-0.0028358404737161
0.14961961195323
-0.0030729095566625
0.14978626231155
-0.0033347991451426
0.14996610269973
-0.0036163503354895
0.15015881342776
-0.0038748589369726
0.15036489618065
-0.0041275164380946
0.1505829243559
-0.0043089357852568
0.15081476074707
-0.0045009280744569
0.15105630043893
-0.0045682869029538
-0.0047350424855477
0.15131592397859
0.13969948871824
-0.00010322218668721
0.13971064080184
-0.00030020448739968
0.139728677114
-0.00048791594536467
0.13975330392504
-0.00066720871500097
0.13978424094375
-0.00083798975864811
0.13982113899675
-0.00099911691492591
0.13986357996947
-0.0011497372550297
0.13991114251637
-0.0012904298604865
0.13996348023482
-0.0014227562669409
0.14002040762468
-0.001548525473175
0.14008193938684
-0.0016697941059767
0.14014827882602
-0.0017895116812545
0.14021977980939
-0.001910193437246
0.14029689637233
-0.002032216119192
0.14038013409674
-0.0021519247725503
0.14046998329331
-0.0022654051882631
0.14056694780422
-0.00237204636973
0.14067162542458
-0.0024811404603478
0.14078475283791
-0.0026064349922984
0.1409073018541
-0.0027668537646199
0.14104026044926
-0.0029687990657439
0.14118477843769
-0.0032174275423903
0.14134158199434
-0.0034916026991524
0.14151152507265
-0.0037862934113256
0.14169461680672
-0.0040579506681845
0.14189162791488
-0.0043245275429462
0.14210149797206
-0.0045188058379864
0.14232632034613
-0.0047257504427853
0.14256205224736
-0.0048040187965775
-0.0049905989665008
0.14281760873881
0.13185858853597
-0.00010670597844238
0.13186860538571
-0.00031022132109986
0.13188478846857
-0.00050409901220391
0.13190687111042
-0.00068929134177614
0.13193461038081
-0.00086572901518509
0.13196769053406
-0.0010321970557343
0.13200571697787
-0.0011877636877152
0.13204829115528
-0.0013330040281329
0.13209511039202
-0.0014695754950864
0.13214604181583
-0.0015994568894822
0.13220111947115
-0.0017248717546296
0.13226051808566
-0.0018489102898877
0.13232459153517
-0.0019742668813978
0.13239386690272
-0.0021014914819206
0.13246899572865
-0.002227053594004
0.13255057185138
-0.0023469813069689
0.13263910604529
-0.0024605805599195
0.13273503472904
-0.0025770691408733
0.13283889787229
-0.0027102981326589
0.13295148816654
-0.0028794440565477
0.13307380043089
-0.0030911113281277
0.13320713555018
-0.0033507626602509
0.13335255372188
-0.0036370208696243
0.13351124741127
-0.0039449870997205
0.13368358520565
-0.0042302884612953
0.13387069484042
-0.0045116371759713
0.13407162985358
-0.0047197408482003
0.13428911347126
-0.0049432340559511
0.13451832216851
-0.0050332274870295
-0.005242130595441
0.13476985380757
0.1244577387254
-0.00010979834476124
0.12446661709405
-0.00031909966718985
0.12448094473691
-0.00051842663200449
0.12450047739908
-0.00070882398200787
0.12452500565259
-0.00089025724847712
0.12455425572562
-0.0010614471105168
0.12458785045651
-0.0012213584022314
0.12462540684107
-0.0013705603981158
0.12466667355344
-0.0015108421944038
0.12471157347329
-0.0016443567976601
0.12476014604619
-0.0017734443169206
0.12481250993423
-0.0019012741682355
0.12486901044227
-0.0020307673804119
0.12493026752956
-0.0021627485608061
0.12499712051275
-0.0022939065692182
0.12507026981335
-0.0024201306001282
0.12515015061937
-0.0025404613589052
0.12523689387546
-0.0026638123905117
0.12533072398046
-0.0028041282316972
0.12543220423962
-0.0029809243104728
0.12554247954511
-0.0032013866289574
0.12566317366593
-0.0034714567771538
0.12579596400631
-0.0037698112065496
0.12594249888177
-0.004091521972245
0.12610354382204
-0.0043913333986492
0.12628047953198
-0.0046885728828242
0.12647221996902
-0.0049114812811952
0.12668220734567
-0.0051532214271548
0.12690494432124
-0.0052559644549352
-0.0054893768098673
0.12715219054656
0.1174722468341
-0.00011250137042718
0.11747999923713
-0.00032685203584982
0.11749250421025
-0.00053093156951204
0.11750952451864
-0.00072584425586678
0.11753088361512
-0.00091161631248051
0.11755635006833
-0.0010869135336254
0.11758557183962
-0.0012505801457271
0.11761817491025
-0.0014031634430667
0.11765395724828
-0.0015466245085601
0.1176928981266
-0.0016832976536346
0.11773504407261
-0.0018155902418018
0.11778043728695
-0.0019466673624631
0.11782937350069
-0.002079703574826
0.11788256729268
-0.0022159423341694
0.11794106104329
-0.0023524003017823
0.11800567851022
-0.0024847480496272
0.11807674390582
-0.0026115267376773
0.11815399182322
-0.0027410602918146
0.11823728742159
-0.0028874238147579
0.11832694261257
-0.0030705794871173
0.11842441193315
-0.0032988559362038
0.11853175151634
-0.0035787963481282
0.11865153727533
-0.0038895969543303
0.11878582271419
-0.0042258074008762
0.11893592337184
-0.0045414340468248
0.11910312335172
-0.0048557728537107
0.11928578585904
-0.0050941437795624
0.11948808098082
-0.0053555165393953
0.1197029114061
-0.0054707948695707
-0.0057352532849962
0.11994878789424
0.11087881965478
-0.00011483608252439
0.11088548316872
-0.00033351549915053
0.11089622498776
-0.0005416733360457
0.11091080593216
-0.00074042514885151
0.11092908486959
-0.00092989520073927
0.11095087787561
-0.0011087064931046
0.1109758541827
-0.0012755564087235
0.11100364887033
-0.0014309580888768
0.1110340910823
-0.0015770666805095
0.11106721734354
-0.001716423876439
0.11110307572659
-0.0018514485876074
0.11114165650642
-0.0019852481061258
0.11118323905422
-0.0021212860872457
0.11122860330545
-0.0022613065508626
0.11127892037558
-0.0024027173380063
0.11133506597955
-0.0025408936205485
0.111397233827
-0.0026736945528042
0.11146476517369
-0.002808591607291
0.11153725374962
-0.0029599123605425
0.11161487342159
-0.0031481991305084
0.11169949288449
-0.0033834753720271
0.11179351379365
-0.0036728172321312
0.11190051667876
-0.0039965998159368
0.11202255835737
-0.0043478490579412
0.1121619444444
-0.0046808201139707
0.11231922077679
-0.0050130491682715
0.11249315507792
-0.0052680780643951
0.11268717638836
-0.0055495378350704
0.1128895898527
-0.0056732083199311
-0.005982382289805
0.1131367188711
0.10465547151517
-0.00011684156828513
0.10466114833649
-0.00033919225232188
0.10467024036867
-0.00055076529884938
0.10468248401152
-0.00075266872361543
0.10469776931909
-0.0009451804425584
0.10471599422063
-0.0011269313314001
0.10473689523231
-0.0012964573595805
0.10476010879414
-0.001454171591878
0.10478545408583
-0.0016024119150823
0.10481298762269
-0.0017439573574771
0.10484278179368
-0.0018812427039279
0.10487478365339
-0.0020172499120613
0.10490919191414
-0.002155694295109
0.1049468136556
-0.0022989282401839
0.10498900099698
-0.0024449046281387
0.10503681784523
-0.0025887104183962
0.10509046129198
-0.0027273379503232
0.1051489584001
-0.00286708866749
0.10521148156191
-0.0030224354762551
0.10527790149872
-0.0032146190233215
0.10535042888558
-0.0034560027174949
0.10543145199101
-0.0037538402988404
0.10552540967981
-0.0040905574689589
0.1056337706269
-0.0044562099721194
0.10576067606209
-0.0048077255197765
0.10590392534784
-0.0051562984283041
0.10606805705803
-0.0054322097531669
0.1062503436256
-0.0057318243850912
0.10644965998311
-0.0058725246641494
-0.0062138034585149
0.10668108116189
0.098781336008966
-0.00011845923377724
0.098786150834492
-0.00034400699746177
0.098793682708296
-0.00055829709159842
0.098803758281739
-0.00076274421742879
0.098816246846713
-0.00095766892994434
0.09883111011853
-0.0011417945278231
0.098848186098314
-0.0013135332657981
0.098867148242917
-0.0014731336644825
0.098887762743933
-0.0016230263451807
0.0989100774505
-0.0017662719940768
0.098934265449082
-0.0019054306331681
0.098960341919386
-0.0020433263137323
0.098988322621241
-0.0021836749288523
0.099018692063454
-0.002329297615033
0.099052700925947
-0.0024789134239264
0.099091756100084
-0.0026277655268864
0.099136688970661
-0.002772270756427
0.099187047963753
-0.0029174475980286
0.099241999478946
-0.0030773869312276
0.099300586629653
-0.0032732061171196
0.099364398002849
-0.0035198140373951
0.099435039770325
-0.0038244820172664
0.099517327348886
-0.004172845002578
0.099611815018562
-0.0045506976016496
0.099725023175478
-0.0049209336418039
0.099850368429444
-0.005281643654062
0.10000116104569
-0.0055830023481163
0.10015788719811
-0.0058885505232023
0.10036026917504
-0.0060749066335468
0.10059718780358
-0.0064507220844516
0.39447142337479
0.0046288562442814
0.38999602901211
0.0044753943756922
0.38567793170707
0.004318097317712
0.38152109608755
0.0041568356320304
0.37752955792428
0.0039915381756375
0.37370735544302
0.0038222024935842
0.37005851460775
0.0036488408475055
0.36658700712052
0.0034715074994342
0.36329670224162
0.0032903048910147
0.36019130598519
0.0031053962685068
0.35727432112507
0.0029169848720937
0.3545490720366
0.0027252491004024
0.35201877232993
0.0025302997184743
0.34968654542087
0.0023322269208288
0.34755534152108
0.0021312039114192
0.34562779921885
0.0019275423138184
0.3439061831103
0.0017216161200128
0.3423924993681
0.0015136837536219
0.34108876151723
0.0013037378621648
0.33999721973233
0.0010915417961759
0.33912036113128
0.00087685861220774
0.33846060643781
0.00065975470462112
0.33801978838935
0.00044081805950822
0.33779844620799
0.0002213421924206
0.3377942993936
4.1468253656975e-06
0.3380098174342
-0.00021551802960049
0.33844008800994
-0.00043027056481664
0.33908131506848
-0.00064122704758034
0.33993012703829
-0.00084881195892243
0.34098376153443
-0.0010536344852289
0.34224017455902
-0.0012564130137675
0.34369801628411