/*--------------------------------*- C++ -*----------------------------------*\
| =========                 |                                                 |
| \\      /  F ield         | OpenFOAM: The Open Source CFD Toolbox           |
|  \\    /   O peration     | Version:  2112                                  |
|   \\  /    A nd           | Website:  www.openfoam.com                      |
|    \\/     M anipulation  |                                                 |
\*---------------------------------------------------------------------------*/
FoamFile
{
    version     2.0;
    format      ascii;
    arch        "LSB;label=32;scalar=64";
    class       surfaceScalarField;
    location    "16.1";
    object      phi;
}
// * * * * * * * * * * * * * * * * * * * * * * * * * * * * * * * * * * * * * //

dimensions      [0 3 -1 0 0 0 0];

oriented        oriented;

internalField   nonuniform List<scalar> 
43645
(
0.39512390276665
-5.0297478535777e-06
0.39513909919871
-1.5196485745799e-05
0.39516437926416
-2.5280123479066e-05
0.39519967334859
-3.5294144373148e-05
0.39524491962352
-4.5246335145734e-05
0.39530006311917
-5.5143555270834e-05
0.39536505106281
-6.4988002170568e-05
0.39543983058543
-7.4779579876565e-05
0.39552434525559
-8.4514725977372e-05
0.39561853811425
-9.4192913077551e-05
0.39572234741983
-0.0001038093585126
0.39583571205877
-0.00011336469047029
0.39595855931981
-0.00012284731113164
0.39609081831016
-0.00013225903910218
0.39623239515463
-0.00014157689187745
0.39638320745177
-0.00015081234335402
0.39654312889863
-0.0001599214919001
0.39671207100892
-0.00016894215434429
0.39688985806246
-0.00017778709663178
0.39707641958257
-0.00018656156247206
0.39727150247686
-0.00019508293594629
0.39747511285372
-0.00020361041803558
0.39768684496081
-0.00021173214783044
0.39790689407882
-0.00022004915855597
0.39813450626031
-0.00022761222183949
0.39837031601106
-0.00023580979115419
0.39861278495805
-0.00024246898742576
0.39886359373017
-0.00025080881227206
0.39911946177
-0.00025586807936297
-0.00026503236353644
0.39938449409318
0.37294720766553
-9.6827552703135e-06
0.37296134708678
-2.9335996085087e-05
0.37298508315877
-4.90162861718e-05
0.37301834431645
-6.8555392653166e-05
0.37306106690737
-8.7969015523414e-05
0.37311320292512
-0.00010727966089118
0.37317471025315
-0.00012649541623556
0.37324554753623
-0.00014561694711831
0.37332567041699
-0.0001646376889237
0.37341503487901
-0.00018355745536593
0.37351359303728
-0.00020236759504124
0.3736212981614
-0.00022106989096826
0.37373809239378
-0.00023964161794219
0.37386392003832
-0.00025808675630117
0.37399870337909
-0.00027636030352672
0.37414237685087
-0.00029448588445466
0.37429483271731
-0.00031237742612181
0.3744560013781
-0.00033011088166336
0.37462572842925
-0.00034751421309441
0.37480396321098
-0.00036479640860475
0.37499047631946
-0.00038159610796768
0.37518529189052
-0.00039842605207653
0.3753880310963
-0.00041447141607951
0.37559890189767
-0.00043092002219009
0.37581718682
-0.00044589720624266
0.37604352247198
-0.00046214550532201
0.37627643475382
-0.00047538133151321
0.37651758263708
-0.00049195675730175
0.37676382078063
-0.00050210628283106
-0.0005204119484889
0.37701920030374
0.35201539399722
-1.4179315026414e-05
0.35202904586607
-4.2987957256351e-05
0.35205184792754
-7.1818440293536e-05
0.35208374461668
-0.00010045217343826
0.35212468673208
-0.0001289112207637
0.35217463627549
-0.00015722929209314
0.35223356080255
-0.00018542002884666
0.35230143102028
-0.00021348724819052
0.35237821781263
-0.00024142456228062
0.35246389552738
-0.00026923524890828
0.35255843636737
-0.00029690851147842
0.35266181494154
-0.00032444853944138
0.35277399469108
-0.00035182143954314
0.35289494257486
-0.00037903471017766
0.35302460347212
-0.00040602126887589
0.35316293762728
-0.00043282010604532
0.35330986235872
-0.00045930222231788
0.35346533869423
-0.00048558728067544
0.35362923848866
-0.00051141406977102
0.35380154654773
-0.00053710452910842
0.35398205564376
-0.00056210526463433
0.35417083015404
-0.00058720062263541
0.35436750058642
-0.00061114190836536
0.35457232571686
-0.00063574521261853
0.35478457186713
-0.0006581434165467
0.35500495481397
-0.00068252851264533
0.35523193085737
-0.0007023574357799
0.35546730141098
-0.0007273273716713
0.35570772888768
-0.00074253381862259
-0.00077020056764184
0.35595751744524
0.33225835374214
-1.848917606231e-05
0.33227147555726
-5.6109855742365e-05
0.33229337817156
-9.3721138329701e-05
0.33232400001678
-0.00013107410155328
0.33236329711782
-0.00016820840312246
0.3324112425727
-0.00020517482652207
0.33246781700218
-0.00024199453587317
0.3325330062103
-0.0002786765319186
0.332606799308
-0.0003152177334797
0.33268919284788
-0.00035162886029867
0.33278018377766
-0.00038789951062668
0.33287977352069
-0.00042403834989314
0.33298795241447
-0.0004600003986962
0.333104716361
-0.00049579872029145
0.3332300389532
-0.00053134392282396
0.33336391374144
-0.0005666949545329
0.33350628993544
-0.00060167847502897
0.33365716853257
-0.0006364659353898
0.33381645462634
-0.00067070021998533
0.33398417989673
-0.00070482985520864
0.33416016423841
-0.00073808966127812
0.33434452612
-0.00077156255888111
0.33453690455446
-0.00080352039712956
0.33473762852824
-0.00083646924076345
0.33494593662512
-0.00086645156780165
0.33516265956138
-0.00089925150367157
0.33538615545618
-0.00092585338565659
0.33561844863384
-0.0009596206042243
0.33585595406974
-0.00098003930778301
-0.0010176885360705
0.33610344198246
0.3136101735408
-2.2605407951872e-05
0.31362275151611
-6.8687905869337e-05
0.31364374509941
-0.00011471479647006
0.31367309158427
-0.00016042066022651
0.31371075251767
-0.00020586940867893
0.31375671221421
-0.00025113459339758
0.31381096579411
-0.00029624818406859
0.31387351678535
-0.0003412275894954
0.31394437596686
-0.00038607697918195
0.31402356629832
-0.00043081925395177
0.3141111141991
-0.00047544747145654
0.31420705319102
-0.0005199773999523
0.3143114059653
-0.00056435322909583
0.31442420341851
-0.00060859622790689
0.31454545396311
-0.00065259452007179
0.31467519163124
-0.0006964326739265
0.31481340442466
-0.00073989131829736
0.31496014198874
-0.00078320354834265
0.31511534995286
-0.00082590823199881
0.31527911728547
-0.00086859723516439
0.31545129754664
-0.00091026996923771
0.31563207604615
-0.00095234110508455
0.31582110405179
-0.00099254844933246
0.31601879807698
-0.0010341633128179
0.31622436652465
-0.0010720200625752
0.3164387821356
-0.0011136671623853
0.31666028790072
-0.0011473591990786
0.31689117614716
-0.0011905088991319
0.31712755981027
-0.0012164230181515
-0.0012648794736054
0.31737475069781
0.29600861059831
-2.6514211796989e-05
0.29602060848728
-8.0685863651145e-05
0.29604063364761
-0.00013474002553303
0.29606862427656
-0.00018841135696907
0.29610454912881
-0.00024179432720887
0.29614840520006
-0.00029499072934442
0.29620020378005
-0.00034804682693409
0.2962599684216
-0.00040099229220488
0.29632773462022
-0.00045384323704011
0.29640355552377
-0.0005066402149735
0.29648749127887
-0.00055938328208174
0.29657961218466
-0.00061209835955543
0.29667997817202
-0.00066471926841283
0.29678866053004
-0.00071727863634358
0.29690570815578
-0.00076964219458104
0.29703120211618
-0.00082192668181695
0.29716517593138
-0.00087386517965887
0.29730773591495
-0.00092576357714166
0.29745887584139
-0.00097704820269916
0.29761875145529
-0.0010284728927757
0.29778725766028
-0.0010787762173449
0.29796465748186
-0.0011297409696007
0.2981506208246
-0.0011785118347719
0.29834566444989
-0.001229206980971
0.29854896955447
-0.0012753252100988
0.29876166727029
-0.0013263649216035
0.29898188134856
-0.0013675733210767
0.29921219630052
-0.0014208238947855
0.29944840547572
-0.0014526322357996
-0.0015128740332966
0.29969639999038
0.27939491362244
-3.019337186586e-05
0.27940626381385
-9.2036115410854e-05
0.27942521454831
-0.00015369082010446
0.27945170475876
-0.00021490162658726
0.27948571114735
-0.00027580077352879
0.27952724452781
-0.00033652416605896
0.27957633364442
-0.00039713599809548
0.27963302370302
-0.00045768240376686
0.27969737702431
-0.00051819660949707
0.27976947970291
-0.00057874294311611
0.27984942892893
-0.00063933255583081
0.27993733555287
-0.00070000502966275
0.28003330086432
-0.00076068462431703
0.28013744111726
-0.00082141893234741
0.28024985071048
-0.00088205182935653
0.28037066342767
-0.0009427394394427
0.2804999645446
-0.001003166335821
0.28063792406718
-0.001063723138167
0.28078459141343
-0.0011237155865345
0.28094019732617
-0.0011840788426889
0.28110468650175
-0.0012432654296158
0.28127840863993
-0.0013034631444019
0.28146106130193
-0.0013611645332619
0.28165327078933
-0.0014214165051318
0.28185420092346
-0.001476255381159
0.28206515046705
-0.0015373145026748
0.28228413573795
-0.0015865586298547
0.28251404160402
-0.0016507297988433
0.28275035859416
-0.0016889492629784
-0.0017620778077247
0.28299956232891
0.26371363203626
-3.3616009900082e-05
0.2637242479272
-0.00010265206051282
0.26374198872244
-0.00017143166926526
0.26376679247323
-0.00023970543050016
0.26379864387982
-0.00030765223204864
0.26383756842211
-0.00037544875906668
0.26388361341049
-0.0004431810357853
0.26393684672015
-0.00051091576142634
0.26399735876073
-0.00057870869656296
0.26406527022304
-0.00064665445055551
0.2641407174113
-0.00071477978765898
0.26422385418795
-0.00078314184855542
0.26431482619279
-0.00085165666989962
0.26441379808252
-0.00092039086160709
0.26452091386848
-0.00098916765349837
0.26463636459802
-0.0010581902061594
0.26476029280049
-0.0011270945743538
0.26489293791495
-0.0011963682879487
0.26503441216109
-0.0012651898671531
0.26518502798354
-0.001334694699171
0.26534478895772
-0.0014030264372706
0.2655141383964
-0.0014728126163929
0.26569281329818
-0.0015398394680668
0.26588155523777
-0.0016101584778365
0.266079527223
-0.0016742273994594
0.26628819718028
-0.0017459844933245
0.26650550036998
-0.0018038618530554
0.26673461178503
-0.0018798412472717
0.26697076618179
-0.0019251036921034
-0.0020122969843306
0.2672209853237
0.24891242894949
-3.6752314134837e-05
0.24892222016972
-0.00011244332751879
0.24893860360042
-0.00018781514648837
0.24896151670211
-0.00026261857803397
0.24899095202646
-0.00033708760119997
0.24902694946342
-0.00041144623982639
0.24906957483105
-0.00048580644599509
0.24911891917268
-0.0005602601445663
0.24917510188274
-0.00063489144682667
0.24923827902826
-0.00070983163514643
0.2493086268466
-0.00078512764375131
0.24938634339729
-0.00086085843588413
0.24947162036922
-0.0009369336771726
0.24956467279562
-0.0010134433223454
0.24966569716324
-0.0010901920542961
0.2497749448419
-0.0011674379171592
0.24989262006118
-0.0012447698250091
0.2500190357796
-0.001322784037129
0.2501543735027
-0.0014005276202923
0.2502990320974
-0.0014793533235363
0.25045308340311
-0.0015570777721828
0.25061706862853
-0.0016367978708856
0.25079077830486
-0.0017135491732367
0.25097507065704
-0.0017944508589524
0.25116913084919
-0.001868287620511
0.25137458848434
-0.0019514421576497
0.25158933850331
-0.0020186119012963
0.25181681601697
-0.0021073187900979
0.25205207830824
-0.0021603660116679
-0.0022628302092381
0.25230261150265
0.2349419084943
-3.9573287828456e-05
0.23495078688115
-0.00012132175554236
0.23496566675136
-0.00020269505767888
0.23498648524712
-0.00028343711426256
0.23501324255652
-0.0003638449502568
0.23504599247724
-0.00044419619946393
0.23508481871512
-0.0005246327218373
0.23512983467211
-0.00060527613870931
0.23518118785021
-0.00068624466106118
0.23523906925433
-0.00076771307452897
0.23530369524996
-0.00084975367357309
0.23537530786115
-0.00093247108040172
0.2354541448791
-0.0010157707273774
0.23554047211908
-0.0010997705937617
0.23563453992101
-0.0011842598866741
0.23573666119533
-0.0012695592212347
0.23584710489193
-0.0013552135505047
0.23596625951566
-0.0014419386892146
0.23609438128717
-0.001528649419466
0.2362319577908
-0.00161692985446
0.23637913836791
-0.0017042583760938
0.23653656326534
-0.0017942227949207
0.23670409255429
-0.0018810784884578
0.23688269749328
-0.0019730558241847
0.23707161422063
-0.0020572043738975
0.23727261712182
-0.0021524450849666
0.23748361552077
-0.0022296103262757
0.23770825483676
-0.0023319581318222
0.23794152396571
-0.0023936351654361
-0.0025125557061747
0.23819124943593
0.22175544942274
-4.2052954491634e-05
0.22176333484229
-0.00012920721058465
0.22177657738963
-0.00021593764038669
0.22179511391796
-0.00030197367758168
0.22181895166991
-0.00038768273655872
0.22184815727196
-0.00047340183532529
0.22188283095328
-0.00055930643624908
0.22192310686757
-0.00064555208551357
0.22196915894082
-0.0007322967660267
0.22202121107073
-0.00081976523552942
0.22207951762656
-0.00090806025964506
0.22214436303939
-0.0009973165228308
0.22221603051004
-0.0010874382267763
0.22229483503285
-0.0011785751447103
0.22238108042395
-0.0012705053050997
0.22247514033954
-0.0013636191636061
0.22257734976857
-0.0014574230056155
0.22268817238704
-0.0015527613333232
0.22280794310084
-0.0016484201583174
0.22293723767715
-0.0017462244555159
0.22307629160435
-0.0018433123275977
0.22322584169676
-0.001943772911453
0.22338583484416
-0.0020410716596633
0.22355734641161
-0.0021445674153856
0.22373969756009
-0.0022395555459155
0.22393478087119
-0.0023475284196098
0.2241405877099
-0.0024354171883865
0.22436090454515
-0.0025522749901295
0.22459078967091
-0.002623520313396
-0.002760011326426
0.22483824526723
0.20930904912363
-4.4170157754122e-05
0.20931587493476
-0.00013603305278177
0.20932736813927
-0.00022743087591053
0.20934346513277
-0.00031807070187197
0.20936417927504
-0.00040839690917487
0.20938958837184
-0.0004988109621269
0.20941980713482
-0.00058952522873472
0.20945498801902
-0.00068073299885174
0.20949532863362
-0.00077263740919775
0.20954108257514
-0.00086551920521946
0.20959253901857
-0.00095951673060726
0.20965002114928
-0.0010547986806475
0.20971385440904
-0.0011512715129818
0.20978440042788
-0.0012491211895622
0.20986201464177
-0.0013481195443567
0.20994712823371
-0.0014487327804874
0.21004014170134
-0.0015504364975986
0.21014159093674
-0.0016542105927029
0.210251891737
-0.0017587209820283
0.21037170442184
-0.0018660371635169
0.2105013582006
-0.001972966129071
0.21064168014323
-0.0020840948765732
0.210792721931
-0.0021921134695742
0.21095564852507
-0.0023074940314381
0.21112990426201
-0.0024138113045489
0.21131746385432
-0.0025350880335009
0.21151647958596
-0.0026344329413512
0.21173079122401
-0.0027665866490574
0.2119556899951
-0.0028484191045004
-0.0030034727072211
0.21219915135436
0.19756117619131
-4.5909844851547e-05
0.19756689327816
-0.00014175016678366
0.19757655378388
-0.00023709140878988
0.1975900933161
-0.00033161026116699
0.19760753005836
-0.00042583367820159
0.19762895087257
-0.00052023180293351
0.19765448232
-0.0006150567024298
0.19768429194634
-0.00071054265127208
0.19771859738862
-0.00080694287717423
0.19775767761288
-0.00090459945494476
0.19780185211403
-0.0010036912567995
0.19785147791092
-0.0011044245023254
0.19790691821324
-0.001206711839612
0.19796857596456
-0.0013107789649015
0.19803685467524
-0.0014163982785777
0.19811223851372
-0.0015241166422097
0.19819519070873
-0.0016333887153632
0.19828631375149
-0.0017453336579332
0.19838610457103
-0.0018585118235747
0.19849530121774
-0.0019752338319627
0.19861433267965
-0.0020919976122971
0.19874410599091
-0.002213868208929
0.1988847954657
-0.0023328029650813
0.19903763575169
-0.002460334337952
0.19920223542216
-0.002578410995229
0.1993806062843
-0.0027134589156683
0.19957114927724
-0.002824975954011
0.19977765310831
-0.0029730904993722
0.19999582668521
-0.0030665926998176
-0.0032410292254423
0.2002333831836
0.18647263139262
-4.7263890317785e-05
0.18647721080286
-0.00014632960117212
0.18648498829294
-0.00024486892312815
0.18649589828626
-0.0003425202787488
0.18650996229631
-0.00043989771234355
0.18652727375768
-0.00053754328834231
0.18654796795716
-0.00063575092575725
0.18657222373151
-0.00073479844941697
0.18660027433472
-0.00083499350393769
0.18663241884008
-0.00093674398377478
0.1866690015097
-0.0010402739496191
0.18671040700899
-0.0011458300246929
0.18675703053236
-0.0012533353857485
0.1868093097913
-0.0013630582464447
0.18686769070237
-0.0014747792118908
0.1869327031797
-0.0015891291415933
0.1870048694236
-0.0017055549809173
0.1870848502749
-0.0018253145306385
0.18717322184904
-0.0019468834187058
0.18727079000832
-0.0020728020119616
0.18737808765457
-0.0021992952788449
0.18749608767375
-0.0023318682481097
0.18762510387118
-0.002461819182104
0.18776641547618
-0.0026016459622783
0.18791983764861
-0.002731833186588
0.18808736659461
-0.0028809878803392
0.1882677456956
-0.0030053550733172
0.18846459431217
-0.0031699391337383
0.18867423963163
-0.0032762380363004
-0.0034706593183201
0.18890386970615
0.17600641622022
-4.8231371042648e-05
0.17600985017734
-0.00014976358010472
0.17601572934218
-0.00025074810992715
0.17602398644546
-0.00035077740407117
0.17603464465418
-0.00045055594300406
0.17604780131665
-0.00055069997276275
0.17606359702314
-0.0006515466540732
0.1760822177213
-0.00075341916942192
0.1761039073249
-0.00085668312921171
0.17612897909689
-0.00096181577745403
0.17615779568393
-0.0010690905581614
0.17619076224759
-0.0011787966098444
0.17622829910018
-0.0012908722596179
0.17627087086369
-0.0014056300311986
0.17631895899154
-0.0015228673607281
0.17637313023249
-0.0016433004034077
0.17643395910986
-0.0017663838788421
0.17650215508118
-0.0018935105223162
0.17657836949585
-0.002023097853334
0.17666346316384
-0.0021578956996254
0.1767580748477
-0.0022939069819278
0.17686322577028
-0.0024370191895558
0.17697938412061
-0.0025779775508273
0.17710784414777
-0.0027301060074589
0.17724866925061
-0.0028726583070006
0.17740378092276
-0.003036099569711
0.17757236149639
-0.0031739356637846
0.17775773283711
-0.00335531049076
0.1779570501706
-0.0034755553854216
-0.0036903035126849
0.17817669434804
0.16612760902515
-4.881843499918e-05
0.16612991079328
-0.00015206536832018
0.16613391107759
-0.00025474841449518
0.16613954032253
-0.00035640666934939
0.16614682177891
-0.00045783741960456
0.16615585393822
-0.00055973215229833
0.16616677914172
-0.00066247187763921
0.16617978610454
-0.00076642615228174
0.16619512415889
-0.00087202120343227
0.16621311445717
-0.00097980609559286
0.16623413109866
-0.0010901072193716
0.16625859200501
-0.0012032575359217
0.16628693494841
-0.0013192152226164
0.16631964273529
-0.0014383378376904
0.16635722433141
-0.0015604489763052
0.16640027320462
-0.0016863492960135
0.1664494081692
-0.0018155188625516
0.16650537490065
-0.0019494772727204
0.16656889397788
-0.0020866169491285
0.16664086661527
-0.0022298683552377
0.16672203645565
-0.0023750768400302
0.16681345310147
-0.0025284358526261
0.16691575127635
-0.0026802757423829
0.16703020760036
-0.0028445623476257
0.16715717224023
-0.0029996229624718
0.16729842826712
-0.0031773556117328
0.16745369128514
-0.0033291986964938
0.16762585235441
-0.0035274715741921
0.16781310667997
-0.0036628097246258
-0.003897933999759
0.16802073715211
0.15680324807095
-4.9037833541681e-05
0.15680445045534
-0.00015326777156058
0.15680662350907
-0.0002569214871672
0.15680969563522
-0.00035947881438466
0.15681368819584
-0.00046182999886648
0.15681869799734
-0.0005647419722521
0.1568248656607
-0.00066863955913009
0.1568323783673
-0.00077393887679654
0.15684148566534
-0.00088112851906863
0.15685251023737
-0.00099083068507886
0.15686583047844
-0.001103427477671
0.1568818690528
-0.0012192961274796
0.15690107300661
-0.0013384191934967
0.1569239342274
-0.0014611990755811
0.15695098025021
-0.0015874950160986
0.15698282054886
-0.0017181896116347
0.15702010864135
-0.0018528069718
0.15706361354252
-0.0019929821904664
0.15711411589294
-0.0021371193157152
0.15717254156841
-0.0022882940464746
0.15723973490984
-0.0024422701966245
0.15731675286727
-0.0026054538246118
0.157404404117
-0.0027679270059336
0.15750391513782
-0.0029440733815493
0.15761595615186
-0.0031116639888884
0.15774210733984
-0.0033035068114437
0.1578827029601
-0.0034697943279727
0.15804006794054
-0.003684836565356
0.15821364222277
-0.0038363840172981
-0.0040916164127438
0.15840732462402
0.14800222110702
-4.8908027526637e-05
0.14800237520427
-0.00015342188712939
0.14800280219943
-0.00025734850053823
0.14800342798237
-0.00036010461514342
0.14800427143055
-0.00046267346424631
0.14800542526191
-0.00056589582022036
0.14800702499267
-0.00067023930578387
0.14800925201794
-0.00077616591737039
0.14801235102312
-0.00088422753888439
0.14801664007511
-0.00099511975127337
0.14802249491861
-0.0011092823349395
0.14803033517978
-0.0012271364022337
0.14804060882965
-0.0013486928567623
0.14805380779266
-0.001474398051979
0.14807046839581
-0.0016041556325382
0.1480912055417
-0.0017389267708014
0.14811669609592
-0.0018782975391119
0.14814772013938
-0.002024006246818
0.1481851060745
-0.0021745052632932
0.14822979021831
-0.0023329782022361
0.14828270655065
-0.0024951865401996
0.14834490227654
-0.0026676495609198
0.14841735663427
-0.0028403813731289
0.1485012193014
-0.0030279360571553
0.14859750164299
-0.0032079463379801
0.14870752826592
-0.0034135334409909
0.14883232289166
-0.003594588959681
0.14897351083326
-0.0038260245124675
0.14913195877568
-0.0039948319652843
-0.0042695589602207
0.14930990131629
0.13969516124588
-4.8452030979265e-05
0.13969433099532
-0.00015259165600255
0.13969311699924
-0.00025613452359596
0.13969144214164
-0.00035842977571159
0.13968932105447
-0.00046055239393706
0.13968684025795
-0.000563415039277
0.13968412755072
-0.00066752661273412
0.13968135476909
-0.00077339314868655
0.13967875689091
-0.00088162967247107
0.13967664130794
-0.00099300417918382
0.13967537445415
-0.0011080154912735
0.13967536573042
-0.0012271276882092
0.13967705619213
-0.0013503833278409
0.13968092937103
-0.0014782712401476
0.13968752020034
-0.0016107464710081
0.13969743920864
-0.0017488457882316
0.13971137333736
-0.0018922316767812
0.13973010356669
-0.0020427364848536
0.13975448867841
-0.0021988903832439
0.13978546725987
-0.0023639567912876
0.1398240409503
-0.00253376023733
0.13987124309855
-0.0027148517147991
0.13992819706573
-0.0028973353447013
0.13999597207246
-0.0030957110669199
0.14007589899338
-0.0032878732606124
0.14016903555427
-0.0035066700023461
0.14027712847643
-0.0037026818814197
0.14040101996682
-0.0039499160020102
0.14054313408192
-0.0041369460799962
-0.0044301541069392
0.14070372922767
0.13185434930375
-4.7696625787161e-05
0.13185261094807
-0.00015085332478934
0.13184988034489
-0.00025340394477237
0.13184607754677
-0.00035462700031362
0.13184121158819
-0.0004556864558344
0.13183536088382
-0.00055756435307012
0.13182864368998
-0.00066080943475238
0.1318212193843
-0.0007659688568045
0.13181330911107
-0.00087371941119308
0.13180520369127
-0.00098489876990136
0.13179725406594
-0.0011000658753181
0.13178985254121
-0.0012197261721563
0.13178342641884
-0.0013439572136334
0.13177844276694
-0.0014732875962066
0.13177542573925
-0.0016077294511129
0.13177497210452
-0.001748392161212
0.13177776501071
-0.0018950245904625
0.13178457803072
-0.0020495495120406
0.13179627790775
-0.0022105902668577
0.13181380551514
-0.0023814844044484
0.1318381916461
-0.0025581463729287
0.13187048008221
-0.0027471401541432
0.13191186800895
-0.0029387232730299
0.13196341016981
-0.0031472532275374
0.13202662386798
-0.0033510869567025
0.13210240735441
-0.0035824534849414
0.13219307357668
-0.0037933480985921
0.13229884546641
-0.0040556878861224
0.13242369225119
-0.0042617928599746
-0.004572092476243
0.13256563062374
0.12445361916058
-4.6669476567792e-05
0.12445105467845
-0.00014828887957943
0.12444694514163
-0.00024929444584213
0.12444120736433
-0.00034888925896988
0.12443384279828
-0.00044832192258055
0.12442491983611
-0.00054864142031518
0.12441454588196
-0.00065043550670734
0.12440286587555
-0.0007542888736081
0.12439008370005
-0.0008609372563899
0.12437646782977
-0.00097128291839004
0.12436234903109
-0.0010859470939202
0.12434809633288
-0.0012054734902458
0.12433411824249
-0.0013299791388782
0.12432085646861
-0.0014600258376137
0.12430881806226
-0.0015956910597852
0.12429857462839
-0.0017381487421695
0.1242907957994
-0.001887245775966
0.12428623526982
-0.0020449889964898
0.12428574856633
-0.0022101035765815
0.12429027694525
-0.0023860127954632
0.12430083398945
-0.0025687034277069
0.12431851838827
-0.0027648245616352
0.12434448185144
-0.002964686742655
0.12437994544214
-0.0031827168222245
0.12442630416786
-0.0033974456838632
0.1244847209347
-0.0036408702507611
0.1245573203388
-0.0038659474997815
0.12464454435392
-0.0041429118974736
0.12475108953876
-0.0043683380419425
-0.0046948507655442
0.12487384782868
0.11746827317041
-4.5398915061917e-05
0.11746496606889
-0.00014498183783788
0.11745962167539
-0.00024395011460011
0.1174521522297
-0.0003414198737145
0.11744255093808
-0.00043872068769653
0.11743087512518
-0.00053696566000014
0.11741721873213
-0.00063677916219453
0.11740171092808
-0.0007387811145885
0.11738453592629
-0.00084376229670005
0.11736593410833
-0.00095268114026988
0.11734621296245
-0.0010662259861958
0.11732571289085
-0.0011849734556596
0.11730482036136
-0.0013090866455991
0.11728394176822
-0.0014391472801789
0.11726356562231
-0.0015753149491668
0.11724422246377
-0.0017188056185183
0.1172265702732
-0.0018695936197567
0.11721131613205
-0.0020297348888912
0.11719930998347
-0.0021980974604066
0.11719145810937
-0.0023781609521004
0.11718875300884
-0.0025659983558026
0.11719233674254
-0.002768408321263
0.11720323104164
-0.0029755810646895
0.11722299654819
-0.0032024823483251
0.11725251176788
-0.0034269609197104
0.11729408899372
-0.0036824474892868
0.11734809600756
-0.0039199545234828
0.11741746458364
-0.0042122804818129
0.11750317639511
-0.0044540498621873
-0.0047998385404893
0.11760816415744
0.11087500464078
-4.3918731206236e-05
0.11087104399831
-0.00014102128653035
0.11086461322837
-0.00023751943944887
0.11085561591144
-0.00033242264980708
0.11084404191325
-0.00042714677852511
0.1108299422076
-0.00052286603882384
0.11081339345499
-0.00062023048972162
0.11079450126913
-0.00071988900519709
0.11077342680419
-0.00082268790525709
0.11075038129767
-0.00092963570502893
0.11072565050361
-0.0010414952617346
0.11069954233292
-0.0011588653534383
0.1106724176634
-0.0012819620436573
0.11064463908106
-0.0014113687648206
0.11061667651244
-0.0015473524468686
0.11058900087687
-0.0016911300486762
0.11056226928799
-0.0018428620956545
0.11053709982148
-0.0020045654859759
0.11051438153414
-0.0021753792348291
0.11049489053428
-0.0023586700116192
0.11047971291846
-0.0025508207961712
0.11046983648639
-0.0027585319416475
0.11046636115124
-0.002972105777746
0.11047089322068
-0.0032070144615773
0.11048389400886
-0.0034399617470539
0.11050915002094
-0.0037077035358359
0.11054428335865
-0.003955087891408
0.1105987579155
-0.0042667550661494
0.11065945243821
-0.0045147444120702
-0.0048903471448955
0.11074996100948
0.10465181879493
-4.2271663156054e-05
0.1046473170855
-0.00013651970137893
0.10463996033602
-0.00023016281660297
0.10462964016314
-0.00032210260133972
0.10461634675629
-0.00041385349203983
0.10460013819155
-0.00050665759004621
0.10458109323239
-0.00060118564250152
0.10455927302089
-0.00069806890233181
0.10453479174375
-0.00079820673422701
0.10450783998194
-0.00090268404744675
0.10447868714604
-0.0010123425287271
0.10444760913303
-0.0011277874422842
0.10441494094253
-0.0012492939542347
0.10438100251184
-0.0013774304344211
0.10434624040926
-0.0015125904438339
0.10431105578035
-0.0016559455182807
0.10427610583574
-0.0018079122482966
0.10424188367695
-0.0019703434224829
0.10420935975039
-0.0021428554009747
0.10417906233308
-0.0023283726832843
0.10415237175185
-0.0025241302994056
0.10412972897332
-0.0027358892420488
0.10411300557477
-0.0029553824524319
0.10410263207974
-0.0031966410337695
0.10410052087
-0.0034378505985303
0.10410861397651
-0.0037157966971142
0.10412585605636
-0.0039723300202453
0.10416524865737
-0.0043061477119304
0.10420502355824
-0.0045545193566087
-0.0049677501370098
0.10428242649725
0.098777925702369
-4.0479227960423e-05
0.098773008400164
-0.00013160254503264
0.098764883000475
-0.00022203756372568
0.09875346764166
-0.00031068738693303
0.098738718207009
-0.0003991041982249
0.098720684639255
-0.00048862415954485
0.098699525504184
-0.00058002664163095
0.098675249718679
-0.00067379324879572
0.098647857684466
-0.0007708148304377
0.098617562475713
-0.00087238896819737
0.098584595613034
-0.00097937579491006
0.098549195763592
-0.0010923877213189
0.098511673976747
-0.0012117722953991
0.098472321572398
-0.0013380781576402
0.098431550348485
-0.001471819346711
0.098389701544339
-0.0016140968399482
0.098347405323464
-0.0017656161515314
0.098305054487629
-0.0019279927083327
0.09826365107487
-0.002101452106055
0.098223486217901
-0.0022882079389863
0.098186221173455
-0.0024868653608254
0.098151618767324
-0.0027012869341641
0.098122715149848
-0.002926478925028
0.098097725251237
-0.0031716512172
0.098082598298911
-0.0034227237200298
0.098071760453302
-0.003704958916825
0.09807615097146
-0.0039767205958384
0.098084262471734
-0.0043142592647816
0.09810937811355
-0.0045796350516745
0.098207174868714
-0.0050655469560957
0.39474613853635
0.0046383555161249
0.39026734126357
0.004478797232882
0.3859525778511
0.0043147633727818
0.38180621165453
0.0041463661565545
0.37783246793647
0.0039737436776157
0.37403543417396
0.0037970337213625
0.37041904970985
0.0036163844223596
0.36698709443868
0.0034319552286577
0.36374318072929
0.003243913666273
0.36069074884145
0.0030524318440044
0.35783306385231
0.0028576849447795
0.35517321275002
0.002659851057299
0.35271410096342
0.0024591117412029
0.35045844861317
0.0022556523043521
0.3484087866062
0.0020496619608143
0.34656745293751
0.001841333622148
0.34493658909158
0.0016308637992931
0.34351813669717
0.0014184523475291
0.34231383416645
0.0012043024838802
0.3413252133813
0.0009886207381704
0.34055359563282
0.00077161770164002
0.34000008614393
0.00055350944199197
0.33966556139063
0.00033452470659253
0.33955060957302
0.00011495177087777
0.33965581567575
-0.00010520614925893
0.33998151541412
-0.00032569978493643
0.34052761596156
-0.00054610059380245
0.34129389581524
-0.00076627990010312
0.34227991562006
-0.00098601985102715
0.34348500733417
-0.0012050917603855
0.344908273349