/*--------------------------------*- C++ -*----------------------------------*\
| =========                 |                                                 |
| \\      /  F ield         | OpenFOAM: The Open Source CFD Toolbox           |
|  \\    /   O peration     | Version:  2112                                  |
|   \\  /    A nd           | Website:  www.openfoam.com                      |
|    \\/     M anipulation  |                                                 |
\*---------------------------------------------------------------------------*/
FoamFile
{
    version     2.0;
    format      ascii;
    arch        "LSB;label=32;scalar=64";
    class       volVectorField;
    location    "16.1";
    object      U;
}
// * * * * * * * * * * * * * * * * * * * * * * * * * * * * * * * * * * * * * //

dimensions      [0 1 -1 0 0 0 0];

internalField   nonuniform List<vector> 
22000
(
(1.0000009655905 -2.6151823729732e-05 0)
(1.0000272218983 -7.9091122681671e-05 0)
(1.0000778166724 -0.00013179359296189 0)
(1.0001537186372 -0.00018407247645887 0)
(1.0002552491084 -0.00023597952626314 0)
(1.000382244004 -0.00028757434772293 0)
(1.0005343776342 -0.00033887819774038 0)
(1.000711368774 -0.00038989185730008 0)
(1.0009130201387 -0.00044059481891632 0)
(1.0011391963675 -0.00049098231972343 0)
(1.0013897651045 -0.00054102823378066 0)
(1.0016645978783 -0.00059073609602236 0)
(1.0019635235194 -0.00064004572334089 0)
(1.0022863780604 -0.00068896764637355 0)
(1.0026329272177 -0.00073738118063703 0)
(1.0030029800302 -0.00078534722681462 0)
(1.0033962222607 -0.00083263400679595 0)
(1.0038124532406 -0.00087944204557531 0)
(1.004251236438 -0.00092530992878485 0)
(1.0047124056303 -0.00097079603513181 0)
(1.0051953414105 -0.0010149316822366 0)
(1.0057000283977 -0.001059094337696 0)
(1.0062255400827 -0.0011010946193659 0)
(1.0067722114212 -0.0011441353043394 0)
(1.0073384967348 -0.0011831597417834 0)
(1.0079254325312 -0.0012255864008828 0)
(1.0085302282628 -0.0012598086337625 0)
(1.0091553683422 -0.0013030694165533 0)
(1.0097956918893 -0.0013287845099439 0)
(1.0104567351969 -0.0013768826975278 0)
(1.000000386163 -7.6738929480953e-05 0)
(1.0000263839975 -0.0002323603599432 0)
(1.0000768109333 -0.00038745849573983 0)
(1.0001525654954 -0.0005414078491969 0)
(1.0002540324796 -0.00069433118860957 0)
(1.0003811275623 -0.0008463970139407 0)
(1.0005335728123 -0.00099766824892536 0)
(1.0007111173087 -0.001148149438694 0)
(1.0009135747649 -0.0012977845424521 0)
(1.0011408371987 -0.0014465639922565 0)
(1.0013927832275 -0.0015944145455977 0)
(1.0016693318584 -0.0017413459420803 0)
(1.0019703126442 -0.0018871807075906 0)
(1.0022956342689 -0.002031945843999 0)
(1.0026450287341 -0.002175289426939 0)
(1.0030184303076 -0.002317385488837 0)
(1.0034154167263 -0.0024575625913937 0)
(1.0038360283496 -0.002596396191637 0)
(1.0042795563446 -0.0027325536941695 0)
(1.0047463244193 -0.0028676386347274 0)
(1.0052350777625 -0.0029988650011974 0)
(1.0057468277834 -0.0031301826008821 0)
(1.0062792199181 -0.0032553137494216 0)
(1.0068347781564 -0.0033834134688485 0)
(1.0074088161874 -0.0035000261576577 0)
(1.0080070761205 -0.0036262923445399 0)
(1.0086199596341 -0.0037291559315382 0)
(1.0092600884102 -0.0038576054654981 0)
(1.0099077209402 -0.0039362391654177 0)
(1.0105903067804 -0.0040781042185469 0)
(1.0000003919791 -0.00012460548321599 0)
(1.0000269374837 -0.00037771965558929 0)
(1.0000783693264 -0.00063017783429865 0)
(1.0001554765365 -0.00088088849573122 0)
(1.0002585850873 -0.0011300442546434 0)
(1.0003876208794 -0.0013779244991317 0)
(1.0005423401033 -0.0016246367491014 0)
(1.0007225396708 -0.0018701999043152 0)
(1.0009280636636 -0.0021145400162401 0)
(1.0011588580193 -0.0023576635857403 0)
(1.0014148269935 -0.0025994629307892 0)
(1.001695969066 -0.0028399627181971 0)
(1.0020021213458 -0.0030788676464998 0)
(1.0023333117916 -0.0033162305040555 0)
(1.0026892273068 -0.003551468905624 0)
(1.0030700069683 -0.0037848942558031 0)
(1.0034750664877 -0.0040153928055842 0)
(1.0039048405092 -0.0042439565677966 0)
(1.0043581919845 -0.0044683533731196 0)
(1.0048362498425 -0.0046912997038974 0)
(1.0053367250956 -0.0049080988541265 0)
(1.0058623346714 -0.0051254062209088 0)
(1.0064083315528 -0.0053326326670007 0)
(1.0069809427935 -0.0055451957427659 0)
(1.0075700825769 -0.0057387498732729 0)
(1.0081896447165 -0.0059488889362061 0)
(1.0088180038442 -0.0061200080850995 0)
(1.0094858323847 -0.0063345134103352 0)
(1.0101468534658 -0.0064656814593657 0)
(1.0108688251337 -0.0067034583270296 0)
(1.0000003776983 -0.0001704730058606 0)
(1.0000273736996 -0.0005172216529955 0)
(1.0000797286396 -0.00086313488576736 0)
(1.0001582005083 -0.0012066882798484 0)
(1.0002630880056 -0.0015482093377856 0)
(1.0003943234793 -0.0018881270910175 0)
(1.0005516846575 -0.0022266126859654 0)
(1.0007350176336 -0.0025637221751461 0)
(1.0009442037294 -0.0028993945038649 0)
(1.0011792664054 -0.0032336887216624 0)
(1.0014401492702 -0.0035664854758107 0)
(1.0017269654365 -0.0038978430352986 0)
(1.0020395648955 -0.0042273494319174 0)
(1.0023781460777 -0.004555102407502 0)
(1.00274233582 -0.0048802879510532 0)
(1.0031325658825 -0.0052033972328386 0)
(1.0035480295997 -0.0055228627588002 0)
(1.0039897226585 -0.0058401670460728 0)
(1.0044559135066 -0.006152118909727 0)
(1.0049488714972 -0.0064626704825985 0)
(1.0054648631905 -0.0067650362903818 0)
(1.0060090102539 -0.007068817971592 0)
(1.0065732158153 -0.0073587040597458 0)
(1.0071689140094 -0.0076569275939406 0)
(1.0077784555172 -0.0079283720773636 0)
(1.0084271799672 -0.0082243624039378 0)
(1.0090766338684 -0.008464817667544 0)
(1.0097828076673 -0.008768419973888 0)
(1.0104623502496 -0.0089528341926903 0)
(1.0112394514722 -0.0092912315895803 0)
(1.0000003558448 -0.00021431849001869 0)
(1.0000277350619 -0.00065094895484059 0)
(1.0000809093488 -0.0010865574545343 0)
(1.0001606129414 -0.0015191736537914 0)
(1.000267128713 -0.0019493277862784 0)
(1.000400406747 -0.0023776532245938 0)
(1.0005602522544 -0.0028044166668835 0)
(1.0007465712065 -0.0032297440173224 0)
(1.0009592916554 -0.0036536269421088 0)
(1.0011985382302 -0.0040762238063874 0)
(1.0014643094547 -0.0044974334059877 0)
(1.0017568699805 -0.00491737270181 0)
(1.0020760927558 -0.0053355150857495 0)
(1.0024223993662 -0.0057520282376244 0)
(1.0027953486594 -0.0061658642688661 0)
(1.0031957516536 -0.0065777482447209 0)
(1.0036225309643 -0.0069856418825166 0)
(1.0040774020755 -0.0073916129083475 0)
(1.0045578961092 -0.0077914315612637 0)
(1.005067733481 -0.0081904470521005 0)
(1.0056013767118 -0.0085795543112772 0)
(1.0061669898897 -0.0089716218275682 0)
(1.0067522822149 -0.0093460826389219 0)
(1.007375248185 -0.0097327147250724 0)
(1.0080087669465 -0.010084480189352 0)
(1.0086925534389 -0.010470109561289 0)
(1.0093670913367 -0.010782533402366 0)
(1.0101200829409 -0.01118045243245 0)
(1.0108218203084 -0.01142036157469 0)
(1.0116670040126 -0.011866919289679 0)
(1.0000003253873 -0.00025603820547776 0)
(1.0000279515729 -0.00077865260120398 0)
(1.0000816999642 -0.001300075376846 0)
(1.0001622719564 -0.0018178735708324 0)
(1.0002699343181 -0.0023328508601253 0)
(1.0004046642283 -0.0028459016762563 0)
(1.0005663052024 -0.0033574220772469 0)
(1.000754839007 -0.0038676446750659 0)
(1.0009702537599 -0.0043766595928478 0)
(1.0012128001163 -0.0048847784759056 0)
(1.0014825489262 -0.0053919529009439 0)
(1.0017799532602 -0.0058983881254569 0)
(1.0021049226164 -0.0064034462196766 0)
(1.0024581536818 -0.0069073949353958 0)
(1.0028391363021 -0.0074089514461005 0)
(1.0032491436824 -0.0079091387014524 0)
(1.0036867931026 -0.0084054298721059 0)
(1.0041546673491 -0.0089005884341338 0)
(1.0046494457382 -0.0093892570723947 0)
(1.0051765801803 -0.0098783690286059 0)
(1.0057284297521 -0.010356238743355 0)
(1.0063167619098 -0.010839370146749 0)
(1.0069243789741 -0.0113013366874 0)
(1.0075770058017 -0.011780293850837 0)
(1.0082364316365 -0.012215979042143 0)
(1.008959247533 -0.012696429364435 0)
(1.0096612969522 -0.013084743891419 0)
(1.0104674050864 -0.013583870323214 0)
(1.0111937273378 -0.013882851939834 0)
(1.012117330765 -0.014447122460577 0)
(1.0000002848534 -0.0002954505130129 0)
(1.0000279303434 -0.00089982145658387 0)
(1.0000818281325 -0.0015028527089997 0)
(1.0001626416946 -0.0021016320269969 0)
(1.0002706233889 -0.0026973133338316 0)
(1.0004057866372 -0.0032911127831374 0)
(1.000568023035 -0.0038835919221375 0)
(1.0007574046858 -0.0044751303584086 0)
(1.0009739927583 -0.005065967464304 0)
(1.001218187756 -0.0056566284332315 0)
(1.0014901511917 -0.0062471574116722 0)
(1.0017905603828 -0.00683788246545 0)
(1.0021193781357 -0.0074280610272241 0)
(1.0024776261562 -0.008018096594976 0)
(1.002864731353 -0.0086064744246459 0)
(1.003282506411 -0.0091945877374958 0)
(1.0037292434935 -0.0097794073433741 0)
(1.0042085252582 -0.010364514093186 0)
(1.0047160963956 -0.010943334593144 0)
(1.0052593835126 -0.011524587017668 0)
(1.0058284111817 -0.012093736437284 0)
(1.0064390223038 -0.012671310679789 0)
(1.007068549531 -0.013224397072078 0)
(1.0077514085124 -0.013800396245913 0)
(1.0084370170667 -0.014324470940385 0)
(1.0092008620648 -0.014905932361464 0)
(1.0099313219994 -0.015375113853935 0)
(1.0107946618692 -0.01598356034351 0)
(1.0115468118835 -0.016346410519373 0)
(1.0125565817248 -0.017039376686135 0)
(1.0000002331532 -0.00033231126867764 0)
(1.0000275892602 -0.0010137390539357 0)
(1.0000810508819 -0.0016936968233616 0)
(1.0001612389985 -0.0023687761211238 0)
(1.0002683931362 -0.0030405635072022 0)
(1.0004025715493 -0.0037106625589149 0)
(1.0005637243121 -0.0043798403894995 0)
(1.0007520283 -0.0050486682032339 0)
(1.0009676305986 -0.0057175905460754 0)
(1.0012111032433 -0.0063874117393459 0)
(1.001482716355 -0.0070583128624569 0)
(1.0017834041089 -0.007730783262464 0)
(1.0021132012066 -0.0084039864305846 0)
(1.0024735000086 -0.0090785019084912 0)
(1.0028636774469 -0.0097525920000653 0)
(1.0032861548331 -0.010428098772368 0)
(1.0037388955355 -0.011101484846277 0)
(1.0042265955983 -0.011777275900326 0)
(1.004744017688 -0.012447603533895 0)
(1.0053007616156 -0.013123173780023 0)
(1.0058843646071 -0.013786346259468 0)
(1.0065151126594 -0.014462053851179 0)
(1.0071644785799 -0.015110294817833 0)
(1.0078762911636 -0.015788555010516 0)
(1.0085866943115 -0.016406127304696 0)
(1.0093915479794 -0.017095487993378 0)
(1.0101497829334 -0.017651403452629 0)
(1.0110721961753 -0.018378167445583 0)
(1.0118502686938 -0.018810884670348 0)
(1.012951195028 -0.019644549356057 0)
(1.0000001695858 -0.00036633705051048 0)
(1.00002685915 -0.0011195559309723 0)
(1.0000791697652 -0.0018711876323795 0)
(1.0001576683238 -0.0026173121191937 0)
(1.0002625791113 -0.003360033560948 0)
(1.0003940121139 -0.0041014107857472 0)
(1.0005519848109 -0.004842458626169 0)
(1.0007367910346 -0.0055839868984744 0)
(1.0009486762763 -0.0063267046052369 0)
(1.0011884045835 -0.0070717644272275 0)
(1.0014563734239 -0.0078195332484622 0)
(1.0017538027659 -0.0085707037833925 0)
(1.0020808190109 -0.009324361285888 0)
(1.0024392239166 -0.01008130498695 0)
(1.002828363304 -0.010839590718062 0)
(1.0032513245312 -0.011601591089585 0)
(1.0037057553332 -0.012363266809027 0)
(1.0041975546398 -0.013130215582019 0)
(1.0047204947674 -0.013893214845149 0)
(1.0052864936827 -0.014665150307066 0)
(1.0058805352636 -0.015425056234583 0)
(1.0065275964823 -0.016202614674565 0)
(1.0071930918016 -0.016950207119142 0)
(1.0079307143499 -0.017736148331918 0)
(1.0086628557013 -0.018452732845623 0)
(1.0095066199279 -0.019257259154825 0)
(1.0102904339619 -0.019906502227937 0)
(1.0112713736596 -0.020761102934626 0)
(1.0120742815946 -0.021270859447153 0)
(1.0132684162413 -0.022257764534693 0)
(1.0000000937388 -0.00039723155647255 0)
(1.0000256862673 -0.0012163705703341 0)
(1.0000760251319 -0.0020338153391969 0)
(1.0001516076555 -0.0028451212540775 0)
(1.0002526385066 -0.0036529944148504 0)
(1.0003792843598 -0.0044600157219021 0)
(1.000531638398 -0.0052674896397728 0)
(1.000710121559 -0.006076511636709 0)
(1.0009150875649 -0.0068881154745492 0)
(1.0011475069904 -0.0077038723418736 0)
(1.0014079208816 -0.0085243867737144 0)
(1.0016978588779 -0.0093505993424488 0)
(1.0020175605436 -0.010181539144921 0)
(1.0023692675439 -0.011018271318689 0)
(1.0027523188464 -0.011858671346915 0)
(1.0031705096632 -0.012705724010367 0)
(1.0036212016467 -0.013554910609313 0)
(1.0041115565574 -0.014413021102841 0)
(1.0046343893523 -0.015269449815632 0)
(1.0052040191662 -0.016139428916019 0)
(1.0058029048789 -0.016998507713332 0)
(1.0064608264232 -0.017881393413218 0)
(1.0071371508618 -0.018732450956918 0)
(1.0078955892959 -0.019631400370562 0)
(1.0086447589573 -0.020452689620243 0)
(1.0095232221702 -0.021379701627636 0)
(1.0103288436261 -0.022129417623458 0)
(1.0113652831465 -0.02312151433132 0)
(1.0121907184346 -0.023716598813433 0)
(1.0134770256585 -0.024869316468869 0)
(1.0000000061062 -0.00042471550291023 0)
(1.0000240317377 -0.0013033213346316 0)
(1.0000714996678 -0.0021801314812074 0)
(1.0001428203936 -0.003050166391518 0)
(1.0002381723158 -0.0039168149392606 0)
(1.0003577818561 -0.0047832433797818 0)
(1.0005018240772 -0.0056510860310608 0)
(1.0006708534162 -0.0065217697985697 0)
(1.0008653389156 -0.0073967133370149 0)
(1.0010864668064 -0.0082779753421214 0)
(1.0013349342624 -0.0091664511022864 0)
(1.001612595088 -0.01006337346815 0)
(1.0019198223026 -0.010967743251945 0)
(1.0022593178964 -0.011880938597797 0)
(1.0026304435516 -0.012800692522573 0)
(1.0030377260533 -0.013730680268345 0)
(1.0034782864101 -0.014665946599581 0)
(1.0039605744043 -0.015614579756385 0)
(1.0044765223168 -0.01656460221429 0)
(1.0050428639666 -0.017533719750634 0)
(1.0056396595101 -0.018493921255397 0)
(1.0063014576437 -0.019485115386805 0)
(1.0069818072074 -0.020443431151905 0)
(1.0077542731613 -0.021460331717403 0)
(1.0085141566314 -0.022391963101895 0)
(1.009421002839 -0.023448501212776 0)
(1.010243089386 -0.024306195129964 0)
(1.0113294753222 -0.025445188016798 0)
(1.0121738689224 -0.026134918899614 0)
(1.0135481218521 -0.027465526292969 0)
(0.99999990698552 -0.00044854880815989 0)
(1.0000218743864 -0.0013796533525327 0)
(1.0000655264975 -0.0023088610603647 0)
(1.0001311682426 -0.0032306492629742 0)
(1.0002189446862 -0.0041491644956976 0)
(1.0003291421442 -0.0050682159894806 0)
(1.0004620209428 -0.0059898049390988 0)
(1.000618270958 -0.0069157322077808 0)
(1.0007984799435 -0.0078478593775174 0)
(1.0010040522861 -0.0087887983416475 0)
(1.0012358499844 -0.0097397887663454 0)
(1.0014960561371 -0.010702398555235 0)
(1.0017851940275 -0.011675633398066 0)
(1.0021064317039 -0.012661229246541 0)
(1.0024591866736 -0.013656826735562 0)
(1.0028487209343 -0.014666862874164 0)
(1.0032719754895 -0.015686012955469 0)
(1.0037386753861 -0.016723748196094 0)
(1.0042399852017 -0.017766779945537 0)
(1.0047949923403 -0.018835360570523 0)
(1.0053815821758 -0.019897949568371 0)
(1.0060388843579 -0.020999702919054 0)
(1.0067150793982 -0.022068524616284 0)
(1.0074930982188 -0.023207652528034 0)
(1.0082558633212 -0.024254975236485 0)
(1.0091827325573 -0.025447465527967 0)
(1.0100144059567 -0.026420795051705 0)
(1.0111426690551 -0.027715417913949 0)
(1.0120011528681 -0.02851002319444 0)
(1.0134559011324 -0.03002956941778 0)
(0.99999979775332 -0.0004685467421895 0)
(1.0000192106806 -0.0014447693095858 0)
(1.0000580897904 -0.0024189880100643 0)
(1.000116615061 -0.0033851311987592 0)
(1.0001948891856 -0.0043481696776902 0)
(1.0002932560966 -0.0053126053380348 0)
(1.0004120619405 -0.0062808387003229 0)
(1.0005521286261 -0.00725508192332 0)
(1.0007141617517 -0.0082376937703949 0)
(1.0008997786879 -0.0092318991919889 0)
(1.0011100100328 -0.010239334964312 0)
(1.001347362837 -0.011261943474671 0)
(1.0016125242203 -0.012298773807756 0)
(1.0019091189458 -0.013351959876959 0)
(1.0022366531248 -0.014419111873002 0)
(1.002601104001 -0.015505487883463 0)
(1.0029993066397 -0.016605487728047 0)
(1.0034422089575 -0.017730022007471 0)
(1.003920360435 -0.018864609351585 0)
(1.0044550644907 -0.020032054086572 0)
(1.0050223477786 -0.021197443388682 0)
(1.0056655801552 -0.022411067858567 0)
(1.0063282343066 -0.023592892019837 0)
(1.0071018004851 -0.024857592492238 0)
(1.0078582236016 -0.026025440332125 0)
(1.0087948311426 -0.027359370161362 0)
(1.0096277406992 -0.02845592817419 0)
(1.0107873736577 -0.029913845700084 0)
(1.0116537546903 -0.030824308540715 0)
(1.0131783740095 -0.03254228886149 0)
(0.9999996794492 -0.00048459103347212 0)
(1.0000160551093 -0.001498264310051 0)
(1.0000492250174 -0.0025098146631399 0)
(1.0000992242856 -0.0035126173859558 0)
(1.0001661046822 -0.0045125238193191 0)
(1.0002502623887 -0.0055147687561437 0)
(1.0003521266315 -0.0065221785561976 0)
(1.0004726425186 -0.0075374073120824 0)
(1.0006126280315 -0.008563359801037 0)
(1.000773900142 -0.0096039257118682 0)
(1.0009576564469 -0.010661189355188 0)
(1.0011667113424 -0.011737501438262 0)
(1.0014019247004 -0.012831997508343 0)
(1.0016673532896 -0.013947243133792 0)
(1.0019626240593 -0.015080891723245 0)
(1.0022943843116 -0.016239065679328 0)
(1.0026594456728 -0.017416010636111 0)
(1.0030698861634 -0.018624097774574 0)
(1.003515825761 -0.019847835462306 0)
(1.004020571891 -0.021112506244708 0)
(1.0045586909974 -0.022380123411784 0)
(1.0051773056424 -0.023705817678925 0)
(1.0058160330311 -0.025002209790934 0)
(1.0065738184727 -0.026394660511734 0)
(1.0073134496876 -0.027687136950666 0)
(1.0082477622969 -0.029166750874899 0)
(1.0090721845082 -0.030393840730847 0)
(1.0102503915346 -0.032021263299059 0)
(1.0111171413461 -0.033059134672355 0)
(1.0126979766573 -0.034982990399314 0)
(0.99999955414214 -0.00049663558187149 0)
(1.0000124376531 -0.001539945740696 0)
(1.0000390128921 -0.0025809956145437 0)
(1.0000791510243 -0.0036126051402183 0)
(1.0001328422851 -0.0046415504418868 0)
(1.0002005280095 -0.0056738290242056 0)
(1.0002827146139 -0.0067127123517457 0)
(1.0003804564404 -0.0077613196545058 0)
(1.0004946735019 -0.0088231432113894 0)
(1.0006273611365 -0.0099027794343417 0)
(1.0007798765345 -0.01100280675971 0)
(1.0009553134413 -0.012126010422333 0)
(1.0011547081173 -0.013271659417017 0)
(1.0013825087982 -0.014442775262175 0)
(1.0016384930596 -0.015637139272936 0)
(1.0019299097401 -0.016861762622844 0)
(1.0022536343537 -0.018110884554832 0)
(1.0026227414764 -0.019398316966965 0)
(1.0030271326298 -0.020707806941394 0)
(1.0034918378267 -0.022066953422861 0)
(1.0039904306203 -0.023435145891329 0)
(1.0045731669059 -0.02487186257042 0)
(1.005176822578 -0.026283309791586 0)
(1.0059064286041 -0.027804322686746 0)
(1.006617797166 -0.029224606532844 0)
(1.0075362704303 -0.030852635304344 0)
(1.0083412419443 -0.032217044127881 0)
(1.0095231582403 -0.034018371871003 0)
(1.0103814280519 -0.035195551528987 0)
(1.0120020232725 -0.037330211924192 0)
(0.99999942327164 -0.00050470755196561 0)
(1.0000084025057 -0.0015698377400141 0)
(1.0000275751334 -0.0026325468203112 0)
(1.0000566298222 -0.0036850983546165 0)
(1.0000954854263 -0.0047352243844437 0)
(1.0001446191995 -0.0057897034663203 0)
(1.0002046054035 -0.0068522631329279 0)
(1.000276589517 -0.00792650302007 0)
(1.0003615782081 -0.0090165356544243 0)
(1.0004617170274 -0.01012769573223 0)
(1.0005785091575 -0.01126309638419 0)
(1.0007152892117 -0.012425975070384 0)
(1.0008732676141 -0.013615783260522 0)
(1.0010572285316 -0.014836011594486 0)
(1.0012671261886 -0.016084663648929 0)
(1.0015107199994 -0.017369642145206 0)
(1.0017850385127 -0.018685352730274 0)
(1.0021039831283 -0.020046984803145 0)
(1.0024574626887 -0.021437836493063 0)
(1.0028718860301 -0.022887568857449 0)
(1.0033203530657 -0.024353551104384 0)
(1.0038555205092 -0.025898910961118 0)
(1.0044124640796 -0.027424712061534 0)
(1.0051007133823 -0.02907358404046 0)
(1.0057715674705 -0.030623764686575 0)
(1.0066594361244 -0.032401202754545 0)
(1.0074329311223 -0.033908981997851 0)
(1.0086019098119 -0.035886494436058 0)
(1.0094415715967 -0.037214977157031 0)
(1.011082977964 -0.039562454993913 0)
(0.99999928979203 -0.00050890312061691 0)
(1.0000040042942 -0.0015881762986318 0)
(1.0000150621455 -0.0026648363171081 0)
(1.000031957337 -0.0037305888938732 0)
(1.0000545229171 -0.0047941463214862 0)
(1.0000832624646 -0.0058630744861733 0)
(1.0001188061723 -0.0069415591973249 0)
(1.0001623679579 -0.0080336864170604 0)
(1.0002150217178 -0.0091442120155865 0)
(1.0002790293754 -0.010279229450368 0)
(1.0003560208094 -0.011442420053323 0)
(1.0004495239826 -0.012637482409739 0)
(1.0005609142723 -0.013864098389362 0)
(1.0006952431493 -0.015126229434141 0)
(1.0008526618979 -0.01642220085654 0)
(1.0010413303094 -0.017760788271199 0)
(1.0012585167184 -0.019136755843749 0)
(1.001518749433 -0.020566566448397 0)
(1.0018121768434 -0.022033435956429 0)
(1.0021661909645 -0.023568747269142 0)
(1.0025539669246 -0.02512859031901 0)
(1.0030297402335 -0.026778850143703 0)
(1.0035281131275 -0.028417044549146 0)
(1.0041613609077 -0.030191463363117 0)
(1.0047789324891 -0.031872406097205 0)
(1.0056205467729 -0.033798355594245 0)
(1.0063496976734 -0.035454623186133 0)
(1.0074876662834 -0.037608244040249 0)
(1.0082974031515 -0.039099835499747 0)
(1.0099385466141 -0.041658897266194 0)
(0.9999991537687 -0.00050938570891455 0)
(0.99999930778218 -0.0015953745566867 0)
(1.0000016629041 -0.0026785284917445 0)
(1.0000054835099 -0.0037500099174162 0)
(1.0000105245029 -0.0048194978380237 0)
(1.0000173031355 -0.0058953414857923 0)
(1.0000264910741 -0.0069821813653784 0)
(1.0000393446676 -0.0080845872585516 0)
(1.0000569814201 -0.0092079713270924 0)
(1.0000817400263 -0.010359193688312 0)
(1.0001153530792 -0.011542529854551 0)
(1.0001614881118 -0.012762140914048 0)
(1.0002216700892 -0.014017984765674 0)
(1.0003011392231 -0.015314486250253 0)
(1.0004002554871 -0.016650389331969 0)
(1.0005274543348 -0.018035307808649 0)
(1.000680321612 -0.019464561293355 0)
(1.0008737915175 -0.020955754699364 0)
(1.0010984784773 -0.02249241764804 0)
(1.0013823283267 -0.024107257661307 0)
(1.0016991465758 -0.025755918416017 0)
(1.0021038627709 -0.027506006270458 0)
(1.0025318724707 -0.029253340664141 0)
(1.0030963303691 -0.031149361654716 0)
(1.0036476084219 -0.032960591550865 0)
(1.0044267798311 -0.035032177203288 0)
(1.0050981310068 -0.03684093618377 0)
(1.0061860077292 -0.039168114416981 0)
(1.0069534835928 -0.040834161178089 0)
(1.0085716099988 -0.043600118516181 0)
(0.99999902012351 -0.00050636387445831 0)
(0.999994375168 -0.001592036874237 0)
(0.99998754470733 -0.002674617235915 0)
(0.99997756783067 -0.0037447115383228 0)
(0.99996409593502 -0.0048129766016233 0)
(0.99994765009658 -0.0058885291207916 0)
(0.99992893143905 -0.006976452057288 0)
(0.99990921146094 -0.0080817869697207 0)
(0.99988962580069 -0.0092106053215518 0)
(0.99987254520345 -0.010370528077935 0)
(0.99985977424832 -0.011566440143288 0)
(0.99985506064909 -0.012802957810923 0)
(0.99986005777978 -0.014080354550818 0)
(0.99988011343886 -0.01540350727337 0)
(0.9999157970445 -0.01677166383349 0)
(0.99997568982868 -0.018195238337409 0)
(1.0000577524361 -0.019670282682283 0)
(1.0001770992755 -0.021215418042906 0)
(1.0003250094039 -0.022814857902274 0)
(1.0005295491623 -0.02450225617697 0)
(1.0007656782111 -0.026233624412061 0)
(1.0010881270842 -0.028077260966227 0)
(1.0014343256405 -0.029929176027528 0)
(1.0019164016256 -0.031941326137779 0)
(1.0023884241046 -0.033880906829725 0)
(1.0030887666181 -0.036093297379156 0)
(1.0036885080924 -0.038057187710457 0)
(1.0047065945899 -0.040552878676454 0)
(1.0054187084888 -0.042404066413434 0)
(1.0069899542553 -0.045368743431031 0)
(0.99999888920519 -0.00050009598880947 0)
(0.99998927800666 -0.0015788699057861 0)
(0.99997291481014 -0.0026542648491714 0)
(0.99994859634169 -0.0037163389226528 0)
(0.99991587304256 -0.0047766966137997 0)
(0.99987525405037 -0.0058451929466015 0)
(0.99982745366585 -0.0069273362028633 0)
(0.99977373122762 -0.0080286199838926 0)
(0.99971521723198 -0.0091557718013787 0)
(0.99965426870254 -0.010317156463852 0)
(0.9995927275113 -0.011518276627801 0)
(0.99953435516562 -0.012764186954982 0)
(0.99948090384174 -0.014055506499164 0)
(0.99943774762354 -0.0153975472722 0)
(0.99940565336795 -0.016790127408354 0)
(0.99939322550453 -0.018244432715678 0)
(0.99939882218362 -0.019757374986395 0)
(0.99943753471348 -0.021348516082411 0)
(0.99950143611492 -0.023003009941598 0)
(0.99961833758337 -0.024755234902313 0)
(0.99976475639391 -0.026562145153248 0)
(0.99999444735366 -0.028492053901526 0)
(1.0002479449938 -0.030442596364033 0)
(1.0006346072695 -0.032564208227799 0)
(1.0010147629393 -0.034628514761018 0)
(1.0016201195125 -0.036975314125014 0)
(1.0021343346051 -0.039095065061669 0)
(1.0030625570589 -0.041751855583598 0)
(1.0037056204122 -0.043797672317819 0)
(1.005205672941 -0.046949488486816 0)
(0.99999876304933 -0.00049086058464231 0)
(0.99998406625084 -0.0015566735385175 0)
(0.99995793017511 -0.0026188049009703 0)
(0.99991890875085 -0.0036667644573792 0)
(0.99986644755472 -0.004713069638021 0)
(0.99980102459899 -0.005768275438624 0)
(0.99972335228373 -0.006838289729039 0)
(0.99963464519242 -0.0079290230382266 0)
(0.99953600707796 -0.0090478483093603 0)
(0.9994297293936 -0.010203842278787 0)
(0.99931766213074 -0.011403136076967 0)
(0.99920350883687 -0.012651194252053 0)
(0.99908909812964 -0.013949012864193 0)
(0.99897973729886 -0.015302299307985 0)
(0.99887637621974 -0.016711502109847 0)
(0.99878751638543 -0.018188542988926 0)
(0.99871191425053 -0.019731281220057 0)
(0.99866446019835 -0.021360196014669 0)
(0.99863805768895 -0.023061467885617 0)
(0.99865999625735 -0.024870244888418 0)
(0.99870851739214 -0.026744480530227 0)
(0.99883592567978 -0.028752675349563 0)
(0.99898645365645 -0.030794182696431 0)
(0.99926558184563 -0.033017983097743 0)
(0.99954172722634 -0.035200938884236 0)
(1.0000368393646 -0.037675506645697 0)
(1.0004519348412 -0.039948462702564 0)
(1.0012702974256 -0.042757980058552 0)
(1.0018300476446 -0.045003873559146 0)
(1.003234239451 -0.048327946202268 0)
(0.99999864059029 -0.00047895802498361 0)
(0.99997878328777 -0.0015262955583849 0)
(0.9999427266527 -0.0025696246499179 0)
(0.99988879694353 -0.0035979148806063 0)
(0.99981633546474 -0.0046245716100215 0)
(0.99972576837722 -0.0056608182603713 0)
(0.99961779974928 -0.0067129257734631 0)
(0.99949356018986 -0.0077871575612916 0)
(0.99935410834158 -0.0088915126905858 0)
(0.99920159868774 -0.010035741257935 0)
(0.99903787169622 -0.011226634671376 0)
(0.99886647933553 -0.012470010470505 0)
(0.9986893500181 -0.013767287626949 0)
(0.99851158253438 -0.015124466180788 0)
(0.99833435493392 -0.016542727871743 0)
(0.99816584722848 -0.018034602501379 0)
(0.99800531969343 -0.019599058741867 0)
(0.9978671650903 -0.02125737728895 0)
(0.99774526513418 -0.022996872044418 0)
(0.99766601578368 -0.024853576785457 0)
(0.99760953192345 -0.026786095344696 0)
(0.99762630998065 -0.028864164416888 0)
(0.99766437967183 -0.030987005002477 0)
(0.99782508028623 -0.033305781516821 0)
(0.99798530643382 -0.035597194622021 0)
(0.998356526414 -0.03819510076089 0)
(0.99865951233323 -0.040611388218241 0)
(0.99935009887316 -0.043570876659581 0)
(0.99981294500812 -0.046009480022915 0)
(1.001094457826 -0.049491814802001 0)
(0.99999852159269 -0.00046475039162711 0)
(0.99997351989031 -0.0014887584268052 0)
(0.99992752747367 -0.0025083197491659 0)
(0.99985864641718 -0.0035118625887625 0)
(0.99976610334928 -0.0045136989593062 0)
(0.99965028018735 -0.005525749664172 0)
(0.99951190763615 -0.0065546306578606 0)
(0.99935198493789 -0.0076068475432736 0)
(0.99917147947884 -0.0086909297654507 0)
(0.99897230026221 -0.0098172629930616 0)
(0.9987562990669 -0.010993402963418 0)
(0.99852677762975 -0.012225473894733 0)
(0.99828586416156 -0.01351539961715 0)
(0.99803820733864 -0.0148692801229 0)
(0.99778540539476 -0.016289219762334 0)
(0.99753485186185 -0.017788010493972 0)
(0.99728676009005 -0.01936614244326 0)
(0.99705420682884 -0.02104514111749 0)
(0.99683293776129 -0.022814155351879 0)
(0.99664710232224 -0.024709469473464 0)
(0.99648016364152 -0.026690926631187 0)
(0.99637884974835 -0.028829740082403 0)
(0.99629685289181 -0.031023347585025 0)
(0.9963292516512 -0.033430189980722 0)
(0.99636281354814 -0.035815810483824 0)
(0.99659766195359 -0.038537704921293 0)
(0.99677560983596 -0.041074855459755 0)
(0.99732495128277 -0.044203947257689 0)
(0.99768349358302 -0.046798851267833 0)
(0.9988123023897 -0.050465427641292 0)
(0.99999840108548 -0.00044877434845057 0)
(0.99996845578606 -0.0014455975582779 0)
(0.99991279559333 -0.00243724804816 0)
(0.99982919112439 -0.0034115755995588 0)
(0.99971666731138 -0.0043837708315262 0)
(0.99957560754171 -0.0053665047845056 0)
(0.99940691228064 -0.006366838224457 0)
(0.99921151190437 -0.0073914409304236 0)
(0.99899017307559 -0.008449191468802 0)
(0.99874431418674 -0.0095510041670657 0)
(0.99847578593107 -0.010705257916535 0)
(0.9981876235499 -0.011918390208847 0)
(0.99788232859537 -0.013193033269685 0)
(0.99756386164108 -0.014535269834459 0)
(0.99723452709695 -0.015948464856416 0)
(0.99690030596834 -0.017445215036427 0)
(0.99656313191743 -0.019028304244314 0)
(0.99623330810729 -0.02071838483046 0)
(0.99591035504041 -0.022508235778615 0)
(0.99561299569326 -0.024432006082692 0)
(0.99533247659894 -0.026454436294362 0)
(0.99510517148858 -0.028644109459756 0)
(0.99489948272617 -0.030901881228215 0)
(0.99479186836854 -0.033390310685279 0)
(0.99469432810803 -0.035861635875803 0)
(0.9947759397173 -0.038715419574039 0)
(0.9948201925111 -0.041344428052282 0)
(0.99520782880247 -0.044708678426158 0)
(0.9954664387014 -0.047360082326427 0)
(0.99642341374007 -0.051459698928113 0)
(0.9999982932722 -0.00043212540795754 0)
(0.9999634604073 -0.0014002308494371 0)
(0.99989858670039 -0.0023625290127159 0)
(0.99980080018253 -0.0033060763519946 0)
(0.99966875524199 -0.0042467449265632 0)
(0.99950274342194 -0.0051977628395707 0)
(0.99930396939895 -0.0061667908996672 0)
(0.99907356706024 -0.0071605025691237 0)
(0.99881205286078 -0.0081883260991418 0)
(0.99852014479114 -0.0092618985793196 0)
(0.99819953517257 -0.010390308741954 0)
(0.9978529422701 -0.011580203714747 0)
(0.99748322292567 -0.012835065427884 0)
(0.99709366104729 -0.014161032198472 0)