/*--------------------------------*- C++ -*----------------------------------*\
| =========                 |                                                 |
| \\      /  F ield         | OpenFOAM: The Open Source CFD Toolbox           |
|  \\    /   O peration     | Version:  2112                                  |
|   \\  /    A nd           | Website:  www.openfoam.com                      |
|    \\/     M anipulation  |                                                 |
\*---------------------------------------------------------------------------*/
FoamFile
{
    version     2.0;
    format      ascii;
    arch        "LSB;label=32;scalar=64";
    class       volScalarField;
    location    "19.7";
    object      p;
}
// * * * * * * * * * * * * * * * * * * * * * * * * * * * * * * * * * * * * * //

dimensions      [0 2 -2 0 0 0 0];

internalField   nonuniform List<scalar> 
22000
(
0.0082638925749941
0.0082421072598866
0.0081970471463279
0.0081276125439874
0.0080332809449401
0.0079141112412533
0.0077704326305206
0.0076026082147105
0.0074109421543829
0.0071956905451026
0.0069571074541853
0.0066954828737118
0.0064111508259632
0.0061044903196656
0.00577591385913
0.0054258743806729
0.0050548501653693
0.0046633669039146
0.0042519662942015
0.0038212554121051
0.0033718346995777
0.0029044064237092
0.0024196116380447
0.0019182747249193
0.0014010380539843
0.00086890802844752
0.0003224353930266
-0.0002370649937098
-0.00080935428440721
-0.0013925732456446
0.0086733601299527
0.0086502250202644
0.0086033454995728
0.0085317429612009
0.0084348651360012
0.0083127001460941
0.0081655224820071
0.0079936676298027
0.0077974283475741
0.0075770544380412
0.0073327926360296
0.0070649249795649
0.006773776136381
0.0064597175680461
0.0061231529495934
0.0057645305668062
0.0053843204369102
0.0049830478466596
0.0045612453734788
0.0041195275911556
0.0036584820872559
0.0031788333703174
0.002681197740214
0.0021664487299791
0.0016351704237842
0.0010884672575493
0.00052674804384315
-4.8489675942915e-05
-0.00063735862543662
-0.0012377202406508
0.0094264357505959
0.0094021832075619
0.0093531447752619
0.009278393154131
0.0091774129787246
0.0090501951422636
0.0088969951997957
0.0087181251330097
0.0085138571120605
0.0082844245222782
0.008030058519045
0.0077510264640964
0.0074476362172488
0.0071202446427467
0.0067692379263507
0.0063950533657357
0.0059981441283265
0.0055790325392975
0.0051382335757094
0.0046763735254362
0.0041940160012365
0.0036919251930125
0.0031706727103292
0.0026312272050602
0.0020740712322314
0.0015005166330084
0.00091072869680201
0.00030662879591828
-0.00031252141535181
-0.00094389153357807
0.010478473753078
0.010452932458451
0.010401295296614
0.010322602435877
0.010216331518996
0.010082475678429
0.0099212849157323
0.009733054707589
0.0095180329374455
0.0092764265990817
0.0090084392078172
0.0087143122491033
0.0083943254764607
0.0080488107478323
0.007678124503046
0.0072826826760987
0.006862908024508
0.0064193117404065
0.0059523765564608
0.0054627380052648
0.0049509182142128
0.004417730238488
0.0038636739801471
0.0032898453541282
0.0026965723674818
0.0020854498895484
0.0014562748094265
0.0008115409595545
0.00014956528015335
-0.00052589684256899
0.011791416579753
0.011764384426152
0.011709730847744
0.011626446056311
0.01151398404695
0.011372328830891
0.011201717719972
0.011002422910129
0.010774658349565
0.010518591891922
0.010234384163173
0.0099222347684349
0.0095823780535443
0.0092151038384762
0.0088207198408401
0.0083996032525718
0.0079521258218573
0.0074787716804851
0.0069799688964752
0.0064563509208936
0.0059083721925787
0.0053368934779851
0.0047423066869722
0.0041258553294378
0.0034876516296052
0.0028296380230702
0.0021511203718422
0.0014553198587968
0.00073933462283149
8.133849229897e-06
0.013332074521981
0.013303427854513
0.013245505025402
0.013157240972201
0.013038059190051
0.012887924557703
0.012707049054026
0.012495667321406
0.012253943550667
0.011981989198915
0.011679902781787
0.011347821470043
0.010985911542667
0.010594397601025
0.010173513100656
0.0097235719500647
0.0092448668931309
0.0087378308867137
0.0082028066964596
0.0076404051348012
0.0070509781006362
0.0064354230725917
0.0057939802340595
0.0051280510271302
0.0044374653986938
0.003724569690649
0.0029880572108765
0.0022320207281139
0.0014520665586503
0.00065462923079937
0.015070532086494
0.015040242886108
0.014978989485044
0.014885648042482
0.014759605832949
0.014600798217641
0.01440939721213
0.014185582553299
0.013929449400994
0.01364103200863
0.013320343814695
0.012967434707854
0.012582375327305
0.012165296163584
0.01171632459596
0.011235679612141
0.010723539472074
0.010180253388313
0.0096060396308721
0.0090014559231682
0.0083667075184661
0.0077027062725383
0.0070094868484417
0.0062886064711837
0.0055395377587246
0.0047650709873207
0.003963156138968
0.0031388780687104
0.0022860676375215
0.0014128292960494
0.016978930318565
0.016947064764354
0.016882609516537
0.01678438038131
0.016651722678872
0.016484530641076
0.016282920081075
0.016046996677444
0.015776765231714
0.01547215946973
0.015133081710692
0.014759465925259
0.014351255148898
0.013908451701574
0.013431039330767
0.012919103742071
0.012372665976159
0.011791950404677
0.011177002804586
0.010528286896282
0.0098458068970243
0.0091304540691969
0.0083819931037901
0.007602118975768
0.0067898597772974
0.0059484711214879
0.0050750197667266
0.0041756777781175
0.0032422119361546
0.0022845542082182
0.019030714259116
0.018997429609293
0.018930085382984
0.01882743706576
0.01868878241259
0.018513962089766
0.018303018471468
0.018055963087323
0.017772688036598
0.017453001733317
0.017096667277373
0.016703471309789
0.01627319399448
0.015805671361604
0.015300701318395
0.014758192142551
0.014177958509808
0.013560050924389
0.012904286385319
0.012210983203146
0.011479880136997
0.010711799364823
0.0099061590743596
0.0090647575529449
0.0081860804655686
0.0072738482371195
0.0063240951747455
0.0053441464338131
0.0043234100587386
0.0032737409105558
0.021200247484715
0.021165785928968
0.021096038330981
0.020989700854277
0.020846017804609
0.020664763520134
0.020445889976171
0.020189294983397
0.019894735851653
0.01956187059511
0.019190294232289
0.018779613395095
0.01832940844992
0.01783930859378
0.017308880669994
0.016737807138916
0.016125642280563
0.015472207045611
0.014777026311902
0.014040211968207
0.013261163512471
0.012440572313169
0.011577423061926
0.010673564478157
0.0097268296729248
0.0087413797960994
0.0077120589040306
0.0066473742298896
0.005534074811619
0.0043859571058658
0.023462689346938
0.023427369115066
0.023355859364548
0.023246797289327
0.023099367516194
0.022913266405978
0.022688340501211
0.022424356155748
0.022120915214663
0.021777501233525
0.021393513221357
0.020968345803774
0.020501343001716
0.019991886208006
0.019439264993585
0.018842885404249
0.018201984548806
0.017516093488756
0.016784376637126
0.016006670335311
0.015181953545122
0.014310712362082
0.013391400519208
0.01242584589675
0.011411109119571
0.010351739475118
0.0092412254506775
0.0080892437498477
0.0068795798553042
0.0056278960588553
0.025794058200105
0.025758258398201
0.02568575759066
0.025575131979451
0.025425500826608
0.025236473466655
0.02500777886007
0.024739036583671
0.024429674618712
0.024078980552064
0.023686132400567
0.02325028359633
0.0227705078114
0.02224589948358
0.021675426153312
0.021058167133248
0.020392985445188
0.019679059759351
0.018915123334099
0.018100662157022
0.0172341484904
0.016315777972357
0.015343369643786
0.01431863954353
0.013237747491987
0.012105543950399
0.010913993397365
0.0096738704854403
0.0083657073631671
0.0070068664842365
0.028171422183055
0.028135569115092
0.028062939709261
0.027952054480736
0.027801967457232
0.027612195109476
0.027382338481918
0.027111856870886
0.026799988972358
0.026445809066471
0.026048253999145
0.025606211530302
0.025118455685366
0.024583759031931
0.024000726441788
0.023368063209569
0.022684204149365
0.021947913703828
0.021157424009149
0.020311792704158
0.019408897858097
0.018448550473816
0.017427829688158
0.016348230802256
0.015204893758413
0.014002839961069
0.012732364566301
0.011405150719474
0.0099981943809311
0.0085301999627312
0.030573115331685
0.030537666278541
0.030465830392791
0.030356085203582
0.030207424369821
0.030019267954335
0.029791081457829
0.029522155090986
0.029211528691919
0.028858051477546
0.02846040429063
0.028017190590283
0.027526862024288
0.026987840911496
0.026398335659353
0.025756636152256
0.025060700859991
0.024308821915412
0.023498664614289
0.022628779769319
0.021696366004765
0.020700745989894
0.019638159053617
0.018509737789639
0.017309521668117
0.016042477150522
0.01469731022652
0.013286097251024
0.011782729934988
0.010205229458252
0.032978958724552
0.032944385238239
0.032874295764423
0.032767140814847
0.032621861426186
0.032437780827177
0.032214225158927
0.03195031133946
0.031644876692117
0.031296541041659
0.030903722888595
0.030464730409954
0.029977677750486
0.029440616745061
0.028851334687552
0.028207673220696
0.027507075697453
0.026747310937851
0.025925420300352
0.025039372108185
0.024085608851384
0.023062852069643
0.021966417886459
0.020796882465367
0.019547167535177
0.018221742934099
0.016808029054824
0.01531746762572
0.013722366313211
0.012039096078122
0.03537048688613
0.035337259869485
0.035269869797955
0.035166758392671
0.035026824507367
0.034849297277051
0.034633364020765
0.03437796972785
0.034081751954571
0.033743103673327
0.033360182495457
0.032930999883811
0.032453328240662
0.031924838343965
0.031342882345389
0.030704831261982
0.03000758688555
0.029248353894173
0.028423505458523
0.027530359546089
0.026564536677954
0.025524051415861
0.024403206207908
0.023201875811817
0.021911713850206
0.020536625309465
0.019062268695013
0.017499967131818
0.015818598518863
0.014034060387099
0.03773112963028
0.037699704538539
0.037635937634425
0.037538281810641
0.037405606053893
0.037237051317132
0.037031671028172
0.036788245087033
0.036505220562699
0.036180773395971
0.035812809930343
0.035399052197036
0.034936936996559
0.034423755764341
0.033856424799442
0.033231833813844
0.032546330986451
0.031796528556609
0.030978103479266
0.030087668489287
0.029119969656574
0.028072229217909
0.026937633531863
0.025715266718319
0.024395282253439
0.022981025471296
0.02145591697236
0.019831257262812
0.018071866952455
0.016192475394775
0.040046336678174
0.040017140488109
0.039957864568829
0.039866994986153
0.039743385257584
0.039586096434736
0.039394056728741
0.039165892893328
0.038899876875407
0.038593984495547
0.038245888594877
0.037853037992393
0.037412550102309
0.036921349549791
0.036375929797473
0.035772703303095
0.03510746864655
0.03437623134892
0.033573963908934
0.032696531354688
0.031737779373567
0.030694056138094
0.029557374149142
0.028325907531404
0.026988161064373
0.025546801861754
0.023982631895757
0.022306968999224
0.020479588415686
0.018514678339216
0.042303639924977
0.042277061208487
0.042223066996197
0.042140199483595
0.042027312503232
0.041883398837971
0.041707274464587
0.041497429187498
0.041251979696564
0.040968724215203
0.040645127209793
0.040278389535379
0.039865335427731
0.039402546410342
0.03888611798918
0.0383120035526
0.037675472814176
0.036971927876862
0.036195648033233
0.035341723786362
0.03440310437769
0.033375180164476
0.032248801851638
0.031021051063564
0.029678834719485
0.028223776608565
0.026634084459089
0.024920472658401
0.023037164815093
0.020996590122283
0.044492648339003
0.044469035473978
0.044421027135618
0.044347241166892
0.044246547747187
0.044117886828869
0.043959980361534
0.043771202740974
0.043549540472105
0.043292641248479
0.042997790988034
0.042661974163848
0.042281756850886
0.041853412209555
0.041372674244426
0.040835070138016
0.040235374565651
0.039568412362485
0.038827794913644
0.03800784539499
0.037100625063188
0.036100529661728
0.034997248522872
0.033786626944258
0.032454073014738
0.030999779359573
0.029399687918556
0.027662748233032
0.02573827418549
0.023632823926621
0.046604972646051
0.046584636882906
0.046543237136934
0.046479475384018
0.046392251744247
0.046280472037311
0.046142782891924
0.045977465451686
0.045782408146898
0.04555514536058
0.045292822705482
0.04499224366988
0.044649757024406
0.044261368409402
0.04382249842411
0.043328290252624
0.042773074514969
0.042151138536408
0.041455475121864
0.040679675452429
0.039814944045384
0.038854709681918
0.037787461612639
0.036607810477965
0.03529951467323
0.033861307008229
0.032267064975604
0.030523340726108
0.028574652374174
0.026419036918231
0.048634104496414
0.048617301213032
0.048583040446157
0.048530106094293
0.048457442765518
0.048363942199534
0.048248188431268
0.048108382901646
0.047942341205387
0.04774752329925
0.047520986149847
0.047259398145124
0.046958943581932
0.046615405010297
0.046223952103822
0.04577938478197
0.045275666100535
0.044706572996655
0.04406457731959
0.043342539753172
0.042530939590016
0.041622222870279
0.040603815039054
0.039469073359668
0.038199897321156
0.036793731072526
0.035221186228155
0.033489191642167
0.031534527499545
0.029350287339371
0.050575348812393
0.050562175542052
0.050535365537911
0.050493821973257
0.050436563897137
0.050362464386233
0.050270038975797
0.050157435024929
0.05002242407206
0.049862408416387
0.049674387070341
0.049454927423805
0.049200109889795
0.048905541540052
0.048566220278372
0.048176637976153
0.047730500806797
0.047221065966695
0.04664046231779
0.045980689600377
0.04523183698539
0.044384991726733
0.043427264547118
0.042349980158895
0.041134472385283
0.039774974578975
0.038239787304661
0.036533465856552
0.034586150629244
0.032396063002827
0.052425980862251
0.052416267363872
0.052396714391714
0.052366568084918
0.052325016462366
0.052270868553792
0.052202535773303
0.052118118321989
0.052015393182581
0.051891779869449
0.051744232197987
0.051569216950707
0.051362735646163
0.05112022877179
0.050836568319594
0.050505951546848
0.050121935085043
0.049677217994544
0.049163810379511
0.048572611656498
0.047893856478486
0.047116398113675
0.046228505397981
0.045216822528609
0.044066579908128
0.04276228312161
0.041280958832811
0.039603301297792
0.037669293571436
0.035443792593962
0.05418575533423
0.054179489427606
0.054166624908839
0.05414742503148
0.054121208535362
0.054086707832844
0.05404240111033
0.053986313319702
0.053916181161004
0.053829417635328
0.053723069115408
0.053593725724193
0.053437411798865
0.053249447696718
0.053024581648735
0.052756724407299
0.052439305857401
0.052064507074943
0.051624300494599
0.051108487456411
0.050507719689813
0.049808229639964
0.049000192566261
0.048063887489112
0.046992298014915
0.045754543986833
0.044351970372772
0.042723424290229
0.040853084611806
0.038505528531194
-0.0019504208399243
-0.002480471573283
-0.003018072809524
-0.00356208938936
-0.0041115080288439
-0.0046654824734847
-0.0052232643094763
-0.005784123890953
-0.0063473074829304
-0.0069120311428422
-0.0074774912398438
-0.0080428762689104
-0.0086073744508407
-0.0091701781203913
-0.0097304870748297
-0.010287511137049
-0.010840470761256
-0.011388597867066
-0.01193113806401
-0.012467352991101
-0.012996521468763
-0.013517937973666
-0.014030907245751
-0.014534734365859
-0.015028719183262
-0.015512350279555
-0.015985268357658
-0.016446955771078
-0.016896852727036
-0.017334442709814
-0.01775927708947
-0.018170964396387
-0.018569157300319
-0.018953543003632
-0.019323845119792
-0.019679818265844
-0.020021256477414
-0.020347981128515
-0.020659859491306
-0.020956775145431
-0.021238670428628
-0.021505478795306
-0.021757224642707
-0.021993870337111
-0.022215546225031
-0.02242220374928
-0.022614144538141
-0.02279123822122
-0.022954162181224
-0.023102639093614
-0.0018089205293559
-0.0023485101773094
-0.0028966587356902
-0.0034513467641122
-0.0040111873027881
-0.004575394997783
-0.0051434444796497
-0.0057147938452531
-0.006288780505671
-0.0068646398889481
-0.0074415584336869
-0.0080187102809356
-0.0085952709272563
-0.0091704198746883
-0.0097433402055977
-0.010313216963338
-0.010879236382662
-0.011440587793359
-0.01199646804614
-0.012546086340663
-0.013088669491817
-0.013623469660579
-0.014149778359204
-0.014666948576815
-0.015174415070591
-0.015671466246
-0.016157274856654
-0.016631249090564
-0.017092904380597
-0.01754178211118
-0.017977436065129
-0.018399443330862
-0.018807420312711
-0.019201021869439
-0.019579949371755
-0.019943939272969
-0.020292780629649
-0.020626287662389
-0.020944339108186
-0.021246815821477
-0.021533691963684
-0.021804894625824
-0.022060510968978
-0.022300471677439
-0.022525018960202
-0.02273399365733
-0.02292788004465
-0.023106188502425
-0.023269761542968
-0.023416966024498
-0.001542144192969
-0.0021059199984313
-0.0026806655691185
-0.003262288541653
-0.0038483732832569
-0.0044380843006199
-0.0050312412705311
-0.0056275998806904
-0.0062266070233447
-0.006827471796957
-0.0074293088491018
-0.008031228437687
-0.0086323621815343
-0.0092318591694696
-0.0098288767132186
-0.010422571945765
-0.011012097865039
-0.011596606797531
-0.012175258694902
-0.012747228500001
-0.013311710741081
-0.013867921492019
-0.014415097268361
-0.01495248749368
-0.015479340339985
-0.015994958347425
-0.016498727571898
-0.016990051694824
-0.017468376729575
-0.017933190782869
-0.018384023147025
-0.01882044044131
-0.019242056731463
-0.019648526843711
-0.020039563100257
-0.020414912407664
-0.020774389773366
-0.021117824886856
-0.021445139770526
-0.021756228420914
-0.022051134202487
-0.022329779394546
-0.022592365796433
-0.022838766259594
-0.023069424967206
-0.023283983811838
-0.02348328347044
-0.023666210821788
-0.023834027428859
-0.023982697884418
-0.0011641559671393
-0.0017657345406823
-0.0023815956320881
-0.0030042910579254
-0.0036298541079552
-0.0042574549730599
-0.0048874989384324
-0.005520218149249
-0.0061552310387078
-0.0067917125349113
-0.0074286843003668
-0.008065185501222
-0.0087003128105688
-0.0093332030028148
-0.0099630082837477
-0.010588876957237
-0.011209944818181
-0.011825339930358
-0.01243419474488
-0.013035655331636
-0.013628885389914
-0.014213068025045
-0.014787409376841
-0.015351145018334
-0.015903551036146
-0.016443938819224
-0.016971644697451
-0.017486052443527
-0.017986591685758
-0.018472734971908
-0.018944004482908
-0.019399966224375
-0.019840243227905
-0.020264499456443
-0.020672466647282
-0.021063904255934
-0.021438658777638
-0.021796572897185
-0.02213761984131
-0.022461698443427
-0.022768936466107
-0.023059231168165
-0.02333293080951
-0.023589803847114
-0.023830562590882
-0.02405453453742
-0.024263034211377
-0.024453979178801
-0.024629105294128
-0.024780623086415
-0.00068140522735679
-0.0013327821816468
-0.0020027949217202
-0.0026792966262391
-0.0033562545617267
-0.004032942791508
-0.004710624842609
-0.0053901939701716
-0.0060714908324091
-0.0067536334300685
-0.0074355170239355
-0.0081160938178286
-0.0087944271153049
-0.0094696503285472
-0.01014091963448
-0.010807381045963
-0.011468156747335
-0.012122352801663
-0.012769077345396
-0.013407453524703
-0.014036624444619
-0.014655754991607
-0.015264035540642
-0.015860685781893
-0.016444958145376
-0.0170161415966
-0.017573563902788
-0.018116594271302
-0.018644651115276
-0.019157199655984
-0.019653761972087
-0.020133906270989
-0.020597266552586
-0.021043515551825
-0.021472406987948
-0.021883713114971
-0.022277318604386
-0.022653078892106
-0.023011030027488
-0.023351071757444
-0.023673436640227
-0.023977983746975
-0.024265244808471
-0.024534847109713
-0.024787840097185
-0.025023140194443
-0.02524266233733
-0.025443083197917
-0.025626764128262
-0.02578113400585
-9.6348333909377e-05
-0.00080874199078734
-0.0015454175172769
-0.0022879952678196
-0.0030278050510448
-0.0037643440722657
-0.0045000335150851
-0.0052366162437742
-0.0059741915271867
-0.0067117796472955
-0.0074481034932368
-0.0081820056822585
-0.0089125135921031
-0.0096387627980067
-0.010359918652965
-0.011075126869257
-0.011783495632229
-0.012484107907337
-0.013176047134183
-0.013858414162463
-0.014530331969646
-0.01519094576275
-0.01583942586613
-0.01647497107495
-0.017096813282981
-0.017704227009153
-0.018296530160014
-0.018873082804684
-0.019433298071003
-0.019976637961158
-0.020502628143142
-0.021010841134564
-0.021500925296398
-0.021972564585844
-0.022425541590306
-0.022859645110878
-0.023274808338041
-0.023670902504151
-0.024048042108692
-0.024406127783312
-0.024745521351756
-0.025066035823379
-0.025368427506425
-0.025652155783934
-0.025918680319041
-0.026166432685201
-0.026398056518489
-0.026608762233545
-0.026801667794003
-0.026958474108882
0.00059107905226391
-0.00019316566522303
-0.0010088604394524
-0.0018296030325094
-0.0026434589918413
-0.0034503181960016
-0.004254112501307
-0.0050576400162627
-0.0058612853652656
-0.0066639154519354
-0.0074640257541045
-0.008260324785259
-0.0090518033786221
-0.0098376059111019
-0.010616911129246
-0.011388864488987
-0.012152557267969
-0.01290704568582
-0.013651385570004
-0.014384653202514
-0.015105949372034
-0.015814397655867
-0.016509147225934
-0.017189376815698
-0.017854300932936
-0.018503179220083
-0.019135316600478
-0.019750062828532
-0.020346825826851
-0.020925064070418
-0.021484307242937
-0.022024131669353
-0.022544202228795
-0.023044214546627
-0.023523984237783
-0.023983317133615
-0.024422202842597
-0.024840528149766
-0.025238499078553
-0.02561601451029
-0.025973587627705
-0.026310976801556
-0.026629200568823
-0.026927528011842
-0.027207894635759
-0.027468187334797
-0.027711886009959
-0.02793254552891
-0.028134123867881
-0.028291749220675
0.0013834964191353
0.00051677231388768
-0.00039037204342489
-0.0013013978179229
-0.0022004125479066
-0.0030879361175285
-0.0039698330752659
-0.0048501842655025
-0.0057296744958662
-0.0066069430228097
-0.0074801930654289
-0.0083479732047034
-0.009209238279057
-0.010063148747721
-0.010908899621112
-0.011745632714306
-0.012572415879297
-0.013388271732548
-0.014192222632994
-0.014983315684784
-0.01576062549205
-0.016523250074526
-0.017270313578015
-0.018000970424743
-0.018714412724984
-0.019409880158673
-0.020086660260901
-0.020744087558841
-0.021381560778782
-0.021998530218893
-0.022594526477291
-0.02316912581774
-0.023722008088963
-0.02425287695345
-0.024761582388785
-0.025247943946484
-0.025712012268958
-0.026153686334121
-0.02657327443653
-0.026970669503533
-0.027346555566253
-0.02770062901172
-0.028034203657209
-0.028346342752868
-0.028639511011346
-0.028911012837304
-0.029165245516093
-0.029393989277572
-0.029602099440957
-0.029757543909575
0.0022856602597136
0.0013258867375031
0.00031459204301545
-0.00069904338846751
-0.0016944003785825
-0.0026729522284669
-0.0036430008792332
-0.0046101591031662
-0.0055754083071596
-0.0065370630672367
-0.0074929579946419
-0.0084414549439724
-0.0093814766174287
-0.010312207646405
-0.011232859437446
-0.012142562918272
-0.013040351964659
-0.013925205432113
-0.014796103914302
-0.015652058078064
-0.016492109258518
-0.017315322475742
-0.018120789003463
-0.018907630635038
-0.019675008592049
-0.020422134438
-0.021148270594273
-0.021852727689941
-0.022534887249525
-0.02319418327066
-0.023830140786129
-0.024442327616903
-0.025030433182964
-0.025594160934432
-0.026133391826466
-0.026647951398763
-0.027137952428377
-0.027603298849054
-0.028044407538626
-0.02846115846262
-0.02885442013525
-0.029223820489775
-0.029570991240732
-0.029894784629336
-0.030198227521081
-0.030478037291131
-0.030739569203882
-0.030972806262789
-0.031183488994159
-0.03133212827666
0.0033040254493852
0.0022405845872837
0.001112024982575
-1.6870356879016e-05
-0.0011199156946404
-0.0021999706102588
-0.0032683717579468
-0.0043325308728926
-0.0053936969167861
-0.0064497357548776
-0.0074980269975303
-0.0085367210693994
-0.009564715641225
-0.010581228335813
-0.011585484734853
-0.012576592976224
-0.013553538307561
-0.01451524258533
-0.015460633396181
-0.016388674875125
-0.017298364922175
-0.018188724602717
-0.019058800912845
-0.019907671179444
-0.02073445403344
-0.021538320954733
-0.022318497246556
-0.023074256947226
-0.023804952326852
-0.024509987069954
-0.025188868405162
-0.025841142006265
-0.026466496000123
-0.027064619406443
-0.027635415359792
-0.028178701131436
-0.028694645370721
-0.029183143796866
-0.029644719986987
-0.030079229983193
-0.030487729179813
-0.030869771380702
-0.03122731089756
-0.031558995745953
-0.031868414564688
-0.032151735044939
-0.032415247212299
-0.032647234226491
-0.032854218001049
-0.03298936808525
0.0044462803162566
0.0032684530347732
0.0020090279165671
0.00075185913275198
-0.00047040660169433
-0.001662586919449
-0.0028397519726961
-0.0040113872363517
-0.0051789425489247
-0.0063396803985524
-0.0074904301559866
-0.0086291106328427
-0.0097546082101057
-0.010866182875279
-0.011963067310402
-0.013044329545506
-0.014108886918036
-0.015155587755945
-0.016183293176061
-0.017190907958019
-0.018177372996689
-0.019141650776949
-0.020082728740823
-0.020999623845915
-0.021891396150591
-0.022757160505632
-0.023596088620817
-0.024407399916985
-0.025190399954465
-0.025944443218556
-0.02666900099914
-0.027363575144688
-0.028027834335836
-0.028661431905596
-0.029264275871863
-0.029836153569005
-0.03037727354271
-0.030887503059354
-0.031367457575223
-0.031816954438586
-0.032237219959401
-0.032627731006101
-0.032990738831747
-0.033324713766209
-0.033633752779201
-0.033913568649456
-0.034171268278664
-0.034393696326995
-0.034587920921262
-0.034700428698222
0.0057208834251365
0.0044178386504163
0.003013441887588
0.0016146421518069
0.00026146581901553
-0.0010536072433239
-0.002350182669073
-0.0036400864769188
-0.0049248533818998
-0.0062009545635413
-0.0074645694900224
-0.0087133740035596
-0.0099462620400106
-0.011162544297107
-0.012361448640933
-0.01354197900675
-0.014702960738972
-0.015843149205186
-0.016961322611651
-0.018056310434659
-0.01912697957403
-0.0201722153389
-0.021190926181964
-0.022182048259704
-0.023144562169923
-0.024077504585538
-0.024979971969009
-0.025851105903831
-0.026690141847494
-0.027496358743723
-0.028269166379009
-0.029007995155759
-0.029712467213959
-0.030382170293616
-0.03101698873108
-0.031616649949338
-0.032181370947953
-0.032710964069638
-0.033206101410952
-0.033666545141244
-0.03409364684999
-0.034486812398778
-0.034848518643123
-0.035177114489863
-0.035477072986375
-0.035743825675385
-0.035985040242091
-0.036186595054815
-0.036355679904407
-0.036433452102553
0.007136450622092
0.0056973343606603
0.0041334632377865
0.0025794392900838
0.0010835770880671
-0.00036527390321941
-0.0017921451049691
-0.0032114390047935
-0.0046245957760164
-0.0060270746911614
-0.0074143079811387
-0.0087837311343321
-0.01013427270963
-0.011465298772739
-0.012776010817618
-0.014065317530142
-0.015331923814873
-0.016574469746542
-0.017791631899118
-0.018982144937892
-0.020144780181777
-0.02127832270322
-0.022381578320643
-0.023453377874305
-0.024492596959403
-0.025498166616209
-0.026469079023442
-0.02740436882545
-0.028303172433622
-0.02916466145885
-0.029988148157989
-0.03077295530762
-0.031518620930644
-0.032224631213433
-0.032890800870296
-0.033516760698636
-0.034102681855503
-0.034648292469606
-0.035154251992265
-0.035620256550677
-0.036047687506687
-0.036435909417196
-0.03678747849523
-0.037100731624223
-0.037380268532354
-0.037621523200755
-0.037832276233523
-0.037998185024807
-0.038125875246729
-0.038153413550303
0.0087012693551221
0.0071150157012963
0.0053769659035785
0.0036542086396827
0.0020040118391341
0.00041046415930198
-0.0011577973428889
-0.0027179081309856
-0.0042709611325465
-0.0058111542773053
-0.0073330836908746
-0.0088339651848237
-0.010312794662414
-0.011768992130935
-0.013201701249314
-0.014609695242566
-0.015991525894383
-0.017345694224504
-0.018670753538195
-0.019965320189417
-0.021228043369734
-0.022457579216986
-0.023652601636852
-0.024811806534781
-0.025933935373256
-0.027017783227973
-0.028062202497899
-0.029066084244636
-0.030028425655386
-0.03094825159666
-0.03182473149177
-0.032657042066158
-0.033444583403761
-0.034186697959444
-0.034883062261824
-0.035533172433714
-0.03613706470457
-0.036694358766894
-0.037205578208593
-0.037670362789019
-0.038089943667765
-0.038463726543138
-0.038794070873229
-0.039079513558523
-0.039324341887515
-0.039524454338902
-0.039687013154127
-0.039798554092494
-0.039864105290999
-0.039821953026194
0.010423595087628
0.0086785291320304
0.0067512008133291
0.0048464145842079
0.0030305970920188
0.0012815589872861
-0.0004393218004035
-0.0021519233773958
-0.0038566299596883
-0.0055461110447264
-0.0072140682207516
-0.0088575434418391
-0.010475635055728
-0.012067801661478
-0.013633081531058
-0.015170064019642
-0.016677111814933
-0.018152560688272
-0.019594816471699
-0.021002349401671
-0.022373654499408
-0.023707225644443
-0.025001569273243
-0.026255209873805
-0.027466717865633
-0.02863471501075
-0.029757876950415
-0.03083491715743
-0.031864640334293
-0.032845871693492
-0.033777577723352
-0.034658749681058
-0.035488578864281
-0.036266219723696
-0.036991112676488
-0.037662585025907
-0.038280407152014
-0.038844077102926
-0.039353790584881
-0.039809173137486
-0.040211006916349
-0.040558907132793
-0.040854551535225
-0.041097069490936
-0.041289681810454
-0.04142953071642
-0.041521969592148
-0.041556091876363
-0.041533735153188
-0.041397941335434
0.012309319591281
0.010395019407426
0.0082633146326848
0.0061632524615129
0.0041708624217983
0.002255766814838
0.00037097837972419
-0.0015060004779223
-0.0033743266581289
-0.0052248407112802
-0.0070503398091529
-0.008847780180392
-0.010616398549012
-0.012355656694369
-0.014064424051194
-0.015741050242602
-0.017383671768034
-0.018990431981457
-0.020559560086784
-0.022089346026101
-0.023578092407142
-0.025024093524547
-0.026425648041221
-0.027781070519095
-0.029088714607181
-0.030346976576787
-0.031554312156488
-0.032709223304504
-0.033810260432687
-0.034855991104703
-0.035845108393292
-0.036776370623346
-0.037648666775325
-0.038460913305116
-0.039212194092623
-0.039901631863869
-0.040528564122197
-0.041092353830169
-0.041592626514584
-0.04202904420081
-0.04240154743062
-0.042710193868242
-0.04295527107605
-0.043137093848532
-0.04325664104856
-0.043313467962692
-0.043309238683121
-0.043238363900084
-0.043096812000002
-0.042838670006348
0.014362383166688
0.01226914151375
0.0099188056594736
0.0076109050106448
0.0054315528824833
0.0033401472106562
0.0012802174796482
-0.00077308828257643