/*--------------------------------*- C++ -*----------------------------------*\
| =========                 |                                                 |
| \\      /  F ield         | OpenFOAM: The Open Source CFD Toolbox           |
|  \\    /   O peration     | Version:  2112                                  |
|   \\  /    A nd           | Website:  www.openfoam.com                      |
|    \\/     M anipulation  |                                                 |
\*---------------------------------------------------------------------------*/
FoamFile
{
    version     2.0;
    format      ascii;
    arch        "LSB;label=32;scalar=64";
    class       surfaceScalarField;
    location    "9.5";
    object      phi;
}
// * * * * * * * * * * * * * * * * * * * * * * * * * * * * * * * * * * * * * //

dimensions      [0 3 -1 0 0 0 0];

oriented        oriented;

internalField   nonuniform List<scalar> 
43645
(
0.39512378738382
-4.9142949645064e-06
0.39513855366806
-1.4766254604083e-05
0.39516317808771
-2.4624387638913e-05
0.39519763463002
-3.4456509250649e-05
0.39524189784408
-4.4263180898351e-05
0.39529593390684
-5.4036029941113e-05
0.39535969223717
-6.3758298172026e-05
0.39543310695262
-7.3414684026506e-05
0.39551609877724
-8.2991794054695e-05
0.39560857912779
-9.2480320787435e-05
0.39571043800536
-0.00010185884870455
0.39582153867321
-0.00011110063980081
0.39594169650024
-0.00012015779987021
0.39607069274285
-0.00012899621623019
0.39620825839056
-0.00013756562219003
0.39635412219533
-0.00014586377996252
0.39650797182536
-0.00015384960600184
0.39666954070376
-0.0001615688550055
0.3968384952884
-0.00016895456193818
0.39701460805521
-0.0001761127446133
0.39719749195592
-0.00018288387909323
0.39738699113752
-0.00018949916036949
0.39758258486067
-0.00019559370238696
0.3977842861986
-0.00020170131743782
0.39799128647297
-0.00020700025422967
0.39820400858127
-0.00021272208832402
0.39842099514623
-0.00021698654525215
0.39864361126161
-0.00022261609599802
0.39886889568983
-0.00022528440943285
-0.00023145697981196
0.39910035268866
0.37294717445082
-9.5339611376036e-06
0.37296116419129
-2.8755948031628e-05
0.37298464732546
-4.8107473961062e-05
0.37301760513287
-6.74142688874e-05
0.37306001204118
-8.6670042114102e-05
0.37311184055395
-0.00010586449647982
0.37317305242768
-0.00012497012673795
0.37324359488927
-0.00014395710148594
0.37332339865843
-0.00016279552024346
0.37341238116792
-0.0001814627883728
0.37351043668818
-0.00019991432826203
0.37361743391633
-0.00021809782832815
0.37373319776354
-0.0002359216086333
0.3738575234587
-0.00025332187397129
0.37399016016588
-0.00027020229307004
0.37413085590126
-0.00028655947997483
0.37427931794886
-0.00030231161925453
0.37443529620948
-0.00031754708207161
0.37459847271442
-0.00033213103420788
0.3747686310483
-0.00034627104644302
0.37494539676477
-0.00035964956425023
0.37512862158577
-0.00037272395053287
0.37531779802395
-0.00038477011030862
0.37551294446449
-0.00039684772805219
0.37571327005359
-0.00040732581385716
0.37591919947478
-0.00041865148023906
0.37612930494768
-0.00042709198924106
0.37634494593233
-0.00043825705221194
0.37656321960969
-0.00044355805957496
-0.00045586271433803
0.37678762537206
0.35201549588964
-1.4132278873164e-05
0.35202934936448
-4.2609373384851e-05
0.35205251194728
-7.1270007233729e-05
0.35208496283524
-9.9865107922393e-05
0.35212667700266
-0.00012838416167116
0.35217763402749
-0.00015682147457083
0.3522378082741
-0.00018514432791197
0.35230715940254
-0.00021330818569236
0.35238562513311
-0.0002412612079477
0.35247312354281
-0.00026896115642556
0.35256954642564
-0.00029633717084831
0.35267476263436
-0.0003233139979901
0.35278860397005
-0.00034976290663265
0.35291088141855
-0.00037559928590209
0.35304136574876
-0.000400686587985
0.35317983036526
-0.00042502406216447
0.35332600471771
-0.00044848593851469
0.35347965974993
-0.00047120208190111
0.35364048880768
-0.00049296006051054
0.35380828999914
-0.00051407220705089
0.35398268834063
-0.00053404787564704
0.35416355227369
-0.00055358785387929
0.35435036034019
-0.00057157814767619
0.35454316274821
-0.00058965010713054
0.35474112676753
-0.00060528980464793
0.3549447447157
-0.00062226939990933
0.35515247903718
-0.00063482628250401
0.355365837269
-0.00065161525611236
0.3555816468377
-0.00065936760151631
-0.00067794138574563
0.3558037255368
0.33225862490642
-1.871318452065e-05
0.33227242464636
-5.640907012172e-05
0.3322954899071
-9.4335224624024e-05
0.3323277860733
-0.00013216123122911
0.33236928006574
-0.00016987811209667
0.33241995823562
-0.00020749960337841
0.33247981147627
-0.00024499752861119
0.33254881553701
-0.00028231220752572
0.3326269161959
-0.00031936182914543
0.33271403059785
-0.00035607552173889
0.3328100449949
-0.00039235153251666
0.33291482574495
-0.00042809471371034
0.3330282104088
-0.00046314753738237
0.33315002710206
-0.00049741594703974
0.33328007096106
-0.00053073041601101
0.33341814501527
-0.00056309808624672
0.33356400371625
-0.00059434461036988
0.33371744241172
-0.0006246407489332
0.33387816504008
-0.00065368266128008
0.33404598622161
-0.00068189336148261
0.33422052506618
-0.00070858669380529
0.3344016705191
-0.00073473328068626
0.33458887543021
-0.00075878303320723
0.33478223319324
-0.0007830078447227
0.33498084506149
-0.00080390164784268
0.33518530208835
-0.00082672640172263
0.33539390777266
-0.00084343194204279
0.33560840040804
-0.00086610786698819
0.33582524044446
-0.00087620761450711
-0.00090148638733351
0.33604878547041
0.31361064718243
-2.3302950579298e-05
0.31362447402145
-7.0235870706386e-05
0.3136475837933
-0.00011744495805008
0.31367993178044
-0.00016450918044525
0.31372147702577
-0.00021142332042139
0.31377221345711
-0.00025823599864054
0.31383215108224
-0.0003049351187889
0.3139012849107
-0.00035144600206055
0.31397957108468
-0.00039764797040745
0.31406692683596
-0.00044343124134381
0.31416323310768
-0.00048865777378721
0.31426835432241
-0.00053321589900477
0.31438213535444
-0.00057692854116797
0.31450442456592
-0.00061970513118923
0.31463504537501
-0.00066135119886302
0.31477383528441
-0.00070188797017505
0.31492057760018
-0.00074108690161285
0.31507509651055
-0.0007791596353406
0.31523710816198
-0.00081569428951514
0.31540644773803
-0.00085123291470979
0.3155827270419
-0.00088486597542919
0.31576586164727
-0.00091786786397934
0.31595527284848
-0.00094819421274322
0.31615111002338
-0.00097884499794438
0.31635239302155
-0.0010051846245807
0.31655983958287
-0.0010341729414534
0.31677155534466
-0.0010551476823585
0.31698956790987
-0.0010841204107946
0.31720987241019
-0.0010965120942397
-0.0011291040723744
0.31743749011693
0.29600931061879
-2.7911675912824e-05
0.29602319568404
-8.4120900665027e-05
0.29604640196855
-0.00014065120732716
0.29607887570683
-0.00019698288395511
0.29612056940941
-0.00025311698906864
0.29617148705565
-0.00030915361175777
0.29623166116522
-0.00036510919624758
0.29630110948197
-0.00042089428759569
0.29637980129942
-0.00047633975772899
0.29646765585743
-0.00053128577013974
0.29656455026734
-0.00058555215562077
0.29667034887585
-0.00063901448032279
0.29678490667498
-0.00069148631421057
0.29690809645987
-0.00074289489081197
0.29703977494391
-0.00079302965866666
0.29717982000529
-0.00084193300799106
0.29732804908004
-0.00088931595370077
0.29748432104842
-0.00093543158157311
0.29764836797078
-0.00097974119047521
0.29782005132528
-0.0010229162481548
0.29799897699221
-0.0010637916218745
0.29818509454547
-0.0011039853969303
0.29837779127689
-0.0011408909242714
0.29857728470078
-0.0011783384019593
0.29878250230082
-0.0012104022050338
0.29899431116872
-0.0012459817896492
0.29921058834691
-0.0012714248410313
0.29943369730602
-0.001307229350488
0.29965909457639
-0.0013219093459838
-0.0013625714276265
0.29989256195136
0.27939585605131
-3.2533177526103e-05
0.27940978229735
-9.8047115433852e-05
0.27943305791872
-0.00016392679755709
0.27946562113474
-0.00022954606930212
0.279507419298
-0.0002949151224304
0.27955846879364
-0.00036020307826059
0.27961882777016
-0.00042546814457296
0.27968853999365
-0.00049060648369305
0.27976759092807
-0.00055539066578758
0.27985590449108
-0.00061959930761523
0.27995335657936
-0.00068300421942064
0.28005981452669
-0.00074547240396984
0.2801751473085
-0.00080681907336453
0.28029925708572
-0.00086700464609255
0.28043203949938
-0.00092581205133797
0.28057341920746
-0.00098331269568289
0.28072325388438
-0.0010391506110434
0.28088144385441
-0.0010936215324692
0.28104774240481
-0.0011460397224054
0.28122204439835
-0.0011972182234791
0.281403953628
-0.0012457008338324
0.28159346236577
-0.0012934941170906
0.28178992500659
-0.0013373535478381
0.28199363981854
-0.0013820531965843
0.28220343670756
-0.0014201990769662
0.2824203533596
-0.0014628984243956
0.2826420187397
-0.001493090203963
0.2828711724745
-0.0015363830681291
0.28310268154025
-0.0015534183952344
-0.001603061720934
0.28334317185123
0.26371482488664
-3.714858725608e-05
0.26372873715919
-0.00011195935965524
0.26375199171951
-0.00018718132968755
0.26378452019457
-0.00026207451654472
0.26382626632693
-0.000336661227647
0.2638772609752
-0.00041119769999614
0.26393759053125
-0.00048579767489397
0.26400732773325
-0.00056034366062733
0.26408647733003
-0.00063454023838097
0.26417497112632
-0.00070809308040693
0.26427268725858
-0.00078072032911378
0.26437949996318
-0.00085228508666195
0.26449529678112
-0.00092261587032904
0.26462001460794
-0.00099172245254531
0.26475359400781
-0.0010593914317077
0.26489601309684
-0.0011257317657379
0.26504717656699
-0.0011903140629802
0.26520703367524
-0.0012534786229017
0.26537536578236
-0.0013143718123602
0.26555210951543
-0.0013739619396435
0.26573687288311
-0.0014304641851262
0.26592970089618
-0.001486322113885
0.26612991954847
-0.0015375721842702
0.26633792102856
-0.0015900546607935
0.26655243777109
-0.0016347158039223
0.26677469744244
-0.0016851580800681
0.2670020710298
-0.0017204637758827
0.26723770766728
-0.0017720196902596
0.2674758523115
-0.0017915630247894
-0.0018512471279909
0.26772403773428
0.24891387367212
-4.172954568735e-05
0.24892768771079
-0.00012577337339187
0.24895078242989
-0.00021027602398096
0.248983084674
-0.00029437673616727
0.24902453631385
-0.00037811284359803
0.24907518442339
-0.00046184578613873
0.24913514561431
-0.00054575884311769
0.24920452399442
-0.00062972201858172
0.24928334654729
-0.00071336276985947
0.24937155642964
-0.0007963029419326
0.24946903801271
-0.00087820189217034
0.24957567687842
-0.0009589239329103
0.2496913841074
-0.0010383230806572
0.24981613674829
-0.0011164750753009
0.24994992631064
-0.0011931809766818
0.25009279082688
-0.0012685962650322
0.25024468914471
-0.0013422123645527
0.25040562701227
-0.0014144164745253
0.25057542204414
-0.0014841668288923
0.25075406149656
-0.0015526013769103
0.25094116635393
-0.0016175690278364
0.25113684517707
-0.0016820009224342
0.2513404038149
-0.0017411308079014
0.25155234181362
-0.0018019926452746
0.25177129980661
-0.0018536737829794
0.25199871178699
-0.0019125700463911
0.2522316901081
-0.0019534420831998
0.2524738164235
-0.0020141459919499
0.2527187004834
-0.0020364470716263
-0.002107370075149
0.25297482344466
0.23494359912839
-4.6241092803999e-05
0.234957210242
-0.00013938446459578
0.23497997255149
-0.00023303831116341
0.23501181004333
-0.00032621420591826
0.23505266448366
-0.00041896726233424
0.2351026004619
-0.00051178174314743
0.23516176601373
-0.00060492437429462
0.23523029827561
-0.00069825426020899
0.23530824900145
-0.00079131347607972
0.23539557609969
-0.000883630020981
0.23549217434889
-0.00097480012287436
0.23559794522139
-0.0010646947873377
0.23571282831194
-0.0011532061538384
0.23583684578527
-0.0012404925316594
0.23597004584293
-0.0013263810180618
0.2361125319878
-0.0014110823939673
0.23626432469851
-0.0014940050599636
0.23642549269947
-0.0015755844604549
0.2365958999151
-0.0016545740300554
0.23677559160873
-0.0017322930562637
0.23696421411873
-0.0018061915240529
0.23716194832602
-0.0018797351160399
0.23736809326244
-0.0019472757310456
0.23758326689277
-0.0020171662623548
0.23780603295276
-0.0020764398300873
0.23803804286827
-0.0021445799489778
0.23827616616474
-0.0021915653671067
0.23852442697419
-0.002262406788993
0.23877580179087
-0.0022878218765843
-0.002371307662564
0.23903973939092
0.22175737320102
-5.0644484955024e-05
0.2217706644967
-0.00015267574035942
0.22179290187614
-0.00025527567074724
0.22182400836701
-0.00035732067709611
0.22186392723457
-0.00045888611059518
0.22191274126283
-0.00056059575238069
0.2219706301798
-0.00066281327271151
0.22203776487687
-0.00076538893901009
0.222114223746
-0.0008677723274669
0.22219998245923
-0.00096938871678492
0.22229495019305
-0.0010697678398365
0.22239904854655
-0.0011687931243023
0.22251225023276
-0.0012664078241047
0.22263462655673
-0.0013628688399954
0.22276628761223
-0.0014580420585143
0.2229074062928
-0.0015522010597577
0.22305807266618
-0.0016446714191338
0.22321842225238
-0.0017359340326531
0.2233883788485
-0.0018245306126865
0.22356804755717
-0.0019119617516023
0.22375712144452
-0.0019952653985278
0.2239558510893
-0.0020784647480261
0.22416355832856
-0.0021549829579204
0.22438097098776
-0.0022345789091988
0.22460661537354
-0.0023020842038792
0.22484234374628
-0.0023803083097309
0.22508484037463
-0.0024340619838454
0.22533855326738
-0.0025161196703399
0.22559588116255
-0.0025451497610206
-0.0026426184901612
0.22586719200175
0.2093111872425
-5.4899760419524e-05
0.20932403745248
-0.00016552593230086
0.20934555053458
-0.00027678873483851
0.2093756501218
-0.00038742024639905
0.20941428223802
-0.00049751820920648
0.20946154783239
-0.00060786132932335
0.20951765759234
-0.00071892301559487
0.20958281584924
-0.00083054717904147
0.20965712862546
-0.00094208508723029
0.20974059170357
-0.001052851778656
0.20983313209301
-0.0011623082135168
0.2099346951303
-0.0012703561460495
0.21004529039007
-0.0013770030688284
0.21016504121764
-0.0014826196527495
0.21029412352033
-0.0015871243468904
0.21043278192117
-0.0016908594465044
0.21058118351201
-0.0017930729963675
0.21073953153578
-0.001894282043002
0.21090782704837
-0.0019928261123488
0.21108622737506
-0.002090362065486
0.21127451072716
-0.0021835487382797
0.2114729668476
-0.0022769208562156
0.21168101411645
-0.0023630302149506
0.21189941840383
-0.0024529831848064
0.21212680004254
-0.0025294658312263
0.21236504859159
-0.0026185568474697
0.21261093488713
-0.0026799482685039
0.21286894148447
-0.0027741262570568
0.21313157183714
-0.0028077801037544
-0.002920612076493
0.2134095654342
0.19756350490212
-5.8968117083187e-05
0.19757579526434
-0.00017781627808843
0.19759638952277
-0.00029738297682588
0.19762521287698
-0.00041624358420193
0.19766221483549
-0.00053452015155724
0.19770751372219
-0.00065316019995917
0.19776134944318
-0.00077275872082243
0.19782395836465
-0.00089315608487185
0.1978954741076
-0.0010136008148715
0.19797591404412
-0.0011332917000182
0.19806522557528
-0.0012516197298874
0.19816338051273
-0.0013685110688672
0.19827042768364
-0.0014840502255127
0.19838654424568
-0.0015987362007328
0.19851197345604
-0.0017125535436149
0.19864703374782
-0.001825919724811
0.19879197193095
-0.001938011166467
0.19894706444461
-0.0020493745437649
0.19911239467241
-0.0021581563277025
0.19928818234312
-0.0022661497238654
0.19947430078414
-0.0023696671674095
0.19967108462473
-0.0024737046850077
0.19987808416673
-0.002570029745578
0.20009606746113
-0.0026709664679092
0.20032386124268
-0.0027572596018917
0.20056324770299
-0.0028579432969821
0.20081136656748
-0.0029280671226303
0.20107230404477
-0.0030350637242659
0.20133937436862
-0.003074850418205
-0.0032042062508133
0.20162296855309
0.1864751234908
-6.2814223557257e-05
0.18648674403583
-0.00018943680783059
0.18650624020295
-0.00031687912859626
0.18653353847295
-0.00044354183884792
0.18656859218545
-0.00056957384889347
0.18661153567716
-0.0006961036765688
0.18666263537718
-0.00082385840597934
0.186722157153
-0.00095267784591118
0.18679026107168
-0.0010817047190428
0.18686698652303
-0.0012100171369555
0.18695230283525
-0.0013369360280086
0.18704620984542
-0.0014624180650398
0.18714879667827
-0.0015866370447045
0.1872602943011
-0.001710233810014
0.18738101302041
-0.0018332722497422
0.18751134517733
-0.0019562518686585
0.18765161736014
-0.0020782833366033
0.18780218463599
-0.0021999418070624
0.18796321128661
-0.0023191829661721
0.18813499804404
-0.0024379364692857
0.18831750228507
-0.0025521713968439
0.18851114404168
-0.0026673464301517
0.18871557714258
-0.0027744628354389
0.1889316412811
-0.0028870305954939
0.1891583143853
-0.002983932695589
0.18939740084855
-0.0030970297498466
0.18964627753045
-0.0031769437945895
0.18990890560624
-0.0032976917904193
0.19017903614138
-0.0033449809443794
-0.0034920525377384
0.19046688243801
0.17600904193141
-6.640738145701e-05
0.17601989864596
-0.00020029350787853
0.17603814093611
-0.0003351214041536
0.17606369684128
-0.0004690977294018
0.17609652362297
-0.00060240061612351
0.17613676962648
-0.00073634966568301
0.17618472433371
-0.00087181309903371
0.17624067962785
-0.0010086331259383
0.17630481985302
-0.0011458449303716
0.17637720580644
-0.0012824030765993
0.17645782915761
-0.0014175593656871
0.17654671798476
-0.0015513068787656
0.17664400121048
-0.0016839202572948
0.17674996177331
-0.0018161943597763
0.17686497469746
-0.001948285161141
0.17698950398379
-0.0020807811423169
0.1771239543646
-0.0022127337050955
0.17726876086107
-0.002344748291313
0.1774241696616
-0.0024745917548656
0.17759056943833
-0.0026043362343214
0.17776800485933
-0.0027296068065693
0.17795699661084
-0.0028563381705365
0.17815729842986
-0.002974764643767
0.17836986320662
-0.0030995953617046
0.17859378040469
-0.0032078498835604
0.17883098058486
-0.0033342299200649
0.17907893982227
-0.0034249030224861
0.17934176603311
-0.0035605179920541
0.17961325646584
-0.0036164713685191
-0.0037827676488831
0.17990397158631
0.16613033709132
-6.9722479745381e-05
0.16614035516365
-0.00021031156617161
0.16615721688216
-0.00035198310851226
0.1661808525622
-0.00049273339527864
0.16621122333444
-0.00063277137438042
0.16624848902309
-0.00077361534045158
0.16629295781989
-0.00091628188219518
0.16634494332295
-0.0010606186154789
0.16640465126678
-0.0012055528609773
0.16647216238174
-0.0013499141784366
0.16654748997475
-0.0014928869458553
0.16663068929443
-0.001634506185676
0.16672192693589
-0.0017751578862483
0.16682153423291
-0.0019158016443403
0.16692994629834
-0.0020566972143797
0.16704769455148
-0.0021985293833193
0.16717525758701
-0.0023402967287962
0.16731314925203
-0.002482639944609
0.16746169670567
-0.0026231391971468
0.16762137940752
-0.0027640189249687
0.16779233384757
-0.0029005612358451
0.16797518580334
-0.0030391901157165
0.16816980010669
-0.0031693789369961
0.16837724607654
-0.003307041321627
0.16859674437555
-0.0034273481731006
0.16883035522302
-0.003567840758264
0.16907568909138
-0.0036702368819916
0.16933701024165
-0.0038218391337677
0.16960820722316
-0.0038876683420082
-0.0040746479045777
0.16990008748765
0.15680604730466
-7.2741081616215e-05
0.15681517167664
-0.00021943592431139
0.15683055807789
-0.00036736949586375
0.15685213952198
-0.00051431482552722
0.15687988073253
-0.00066051257136992
0.15691395016989
-0.00080768476443725
0.15695467003583
-0.00095700173514199
0.15700237069869
-0.001108319265573
0.15705727547292
-0.0012604576228335
0.15711948258016
-0.0014121212735052
0.15718902548377
-0.0015624298376191
0.15726598438158
-0.0017114650717596
0.15735055993601
-0.0018597334292164
0.15744312666137
-0.0020083683582885
0.15754417312708
-0.0021577436689131
0.15765429191221
-0.0023086481573067
0.15777402869987
-0.0024600335055956
0.15790397272413
-0.0026125839580955
0.15804452792346
-0.002763694386062
0.15819626566186
-0.0029157566531405
0.15835941364276
-0.0030637092069381
0.15853470839006
-0.0032144848534799
0.15872213076364
-0.0033568013015185
0.15892287253279
-0.0035077830819872
0.15913629952835
-0.0036407751603509
0.15936459935112
-0.003796140572967
0.15960555012964
-0.0039111876528463
0.15986355843665
-0.0040798474333623
0.16013269526577
-0.0041568051641217
-0.004365845112562
0.1604238924816
0.14800506139369
-7.5451532475e-05
0.14801325712412
-0.00022763164079872
0.14802710661358
-0.00038121897141106
0.1480465457123
-0.00053375391059165
0.14807154212869
-0.00068550897457189
0.14810226975424
-0.00083841237723251
0.14813905980218
-0.00099379177091634
0.14818225421926
-0.0011515136709523
0.14823208988823
-0.001310293280667
0.14828867948914
-0.0014687108636717
0.14835207412946
-0.0016258244676328
0.14842237554708
-0.001781766479274
0.14849981390495
-0.0019371717772893
0.14858479998862
-0.0020933544322222
0.14867786770601
-0.0022508113767932
0.1487796622925
-0.0024104427343131
0.14889078832328
-0.0025711595271312
0.14901190369833
-0.0027336993240128
0.14914348390785
-0.0028952745867678
0.1492861882626
-0.0030584609993088
0.14944033361744
-0.0032178545536378
0.14960676806074
-0.0033809192889723
0.14978558835934
-0.0035356215928336
0.14997812238535
-0.0037003171010782
0.15018387968813
-0.0038465324567189
0.15040520216779
-0.0040174630465226
0.15064001138854
-0.0041459968678724
0.15089288334329
-0.0043327193825648
0.15115808467966
-0.0044220064951463
-0.0046543803518099
0.15144661992516
0.13969801436798
-7.7848627025493e-05
0.13970526602684
-0.00023488328483659
0.13971754947624
-0.00039350240613192
0.13973480347093
-0.00055100789116501
0.1397569978136
-0.00070770330397552
0.13978430829101
-0.00086572284219602
0.13981706994375
-0.001026553412155
0.13985563090429
-0.0011900746208152
0.13990023752131
-0.0013548998878679
0.13995101363028
-0.0015194869634586
0.14000802538005
-0.0016828362088281
0.1400713916781
-0.0018451327690921
0.14014136681051
-0.0020071469018248
0.14021838914551
-0.0021703767594683
0.14030302951023
-0.0023354517339653
0.14039597397419
-0.0025033871907644
0.14049787842189
-0.0026730639675364
0.14060945728091
-0.0028452781758564
0.14073125470589
-0.0030170720048902
0.14086400587142
-0.0031912121582489
0.1410081172904
-0.0033619659665209
0.14116454071716
-0.0035373427100459
0.14133348033827
-0.0037045612088562
0.14151642019927
-0.0038832569574573
0.14171297946426
-0.0040430917176724
0.14192575773425
-0.0042302413128557
0.14215272424777
-0.004372963378118
0.14239875452972
-0.0045787496613401
0.142658120145
-0.004681372107192
-0.0049381415680023
0.14294188136543
0.13185718845481
-7.9932336444245e-05
0.13186349790595
-0.00024119271834482
0.13187421664787
-0.00040422113048244
0.13188928564583
-0.00056607687248708
0.13190867505551
-0.00072709269837742
0.13193255896705
-0.00088960673984233
0.13196127157786
-0.0010552660105191
0.13199516212546
-0.0012239651572555
0.1320344824514
-0.0013942202038783
0.13207936392406
-0.0015643684271131
0.13212988501918
-0.0017333572957542
0.1321861764962
-0.0019014242384284
0.13224851150046
-0.0020694818988406
0.13231734483301
-0.002239210084959
0.13239327697203
-0.0024113838661477
0.13247701897166
-0.0025871291836321
0.13256927393288
-0.0027653189222103
0.13267079297912
-0.0029467972157047
0.13278219199573
-0.0031284710154671
0.13290425783333
-0.0033132779901672
0.13303749689341
-0.0034952050214852
0.1331829397575
-0.0036827855695722
0.13334090206881
-0.003862523516324
0.13351300919411
-0.0040553640795506
0.13369895807012
-0.0042290405911931
0.13390165733613
-0.0044329405769004
0.13411912954305
-0.0045904355835256
0.13435677284648
-0.0048163929633282
0.13460863072955
-0.0049332299885306
-0.0052148888498768
0.13488537801427
0.12445642089292
-8.1706869166429e-05
0.12446180298617
-0.00024657478737195
0.1244709844594
-0.00041340257897602
0.12448390740993
-0.00057899979939166
0.12450053926483
-0.00074372453151789
0.12452104753873
-0.00091011499397797
0.1245457605492
-0.0010799790032259
0.12457502428197
-0.0012532288740317
0.12460909358507
-0.0014282894925814
0.12464810490392
-0.0016033797327958
0.12469214700744
-0.0017773993871259
0.12474135645189
-0.0019506336714123
0.12479601921076
-0.0021241446467783
0.12485659244484
-0.0022997833084078
0.12492369980067
-0.002478491211627
0.12499805670141
-0.0026614860741982
0.12508041556642
-0.0028476777773326
0.12517153441583
-0.0030379160554975
0.12527211767725
-0.0032290542677475
0.12538295571927
-0.0034241160235899
0.12550469480702
-0.0036169441013865
0.125638371048
-0.0038164618035016
0.12578448561769
-0.004008638079936
0.125944707718
-0.0042155861746935
0.12611886947344
-0.004403202342449
0.12631004728772
-0.0046241183878047
0.12651624731281
-0.0047966356058989
0.12674368829191
-0.0050438339399096
0.12698632558427
-0.0051758672780796
-0.0054841631517425
0.12725559989026
0.11747102152566
-8.3184585286742e-05
0.11747550529366
-0.00025105851909423
0.11748319917471
-0.00042109642241264
0.11749404544554
-0.00058984603369174
0.11750800935634
-0.00075768840796239
0.11752524742042
-0.00092735302615916
0.11754607513605
-0.0011008066894146
0.11757082880606
-0.0012779825167448
0.11759976389417
-0.0014572245552717
0.11763302093682
-0.0016366367514988
0.11767069874557
-0.0018150771731
0.11771293579837
-0.0019928707022757
0.11776002455936
-0.0021712333864839
0.11781241028574
-0.0023521690139731
0.11787073192281
-0.0025368128282871
0.11793568714789
-0.0027264412792378
0.11800808194734
-0.002920072557192
0.11808864454879
-0.0031184786379027
0.11817819904281
-0.0033186087434236
0.11827746213356
-0.0035233790969016
0.1183873037162
-0.0037267856676866
0.11850860707759
-0.0039377651498153
0.11864224522964
-0.004142276218279
0.11878968786377
-0.0043630287965195
0.11895120732759
-0.0045647217953334
0.1191298201217
-0.0048027311722995
0.11932324116969
-0.0049900566453689
0.11953852293148
-0.0052591156938283
0.11976815990427
-0.0054055042430283
-0.0057484922790656
0.12003248904108
0.11087769326593
-8.4392907338143e-05
0.11088133757468
-0.00025470277490399
0.11088762899865
-0.00042738779148226
0.11089650104775
-0.00059871802897803
0.11090792124776
-0.00076910855655922
0.11092203330296
-0.00094146503266909
0.11093913727823
-0.0011179106186719
0.11095955590361
-0.0012984010984332
0.11098354444928
-0.001481213059218
0.11101124777234
-0.0016643400343806
0.11104277256074
-0.0018466019225809
0.11107825406841
-0.0020283521719452
0.1111179803161
-0.0022109595969807
0.11116237410257
-0.0023965627638633
0.11121208010091
-0.0025865187906903
0.11126776736631
-0.0027821285092806
0.11133029590019
-0.0029826010564984
0.11140033865321
-0.0031885213571942
0.11147886534821
-0.0033971354058848
0.11156643780064
-0.003610951518151
0.11166425628918
-0.003824604126832
0.11177281076931
-0.0040463196024182
0.11189367740562
-0.004263142829167
0.11202751059183
-0.0044968619592952
0.11217590701252
-0.0047131181946526
0.1123408544941
-0.0049676786344692
0.11252138269387
-0.0051705848276338
0.11272406355755
-0.0054617965413719
0.11293655408439
-0.005617994754478
-0.0060082144869452
0.11319627630962
0.10465443994349
-8.5366820124032e-05
0.10465733227674
-0.00025759503746382
0.1046623340517
-0.00043238949450705
0.10466938401596
-0.00060576792267772
0.10467843294953
-0.00077815742202519
0.10468959915204
-0.00095263116981803
0.10470315723056
-0.0011314686344024
0.10471942133974
-0.00131466514704
0.1047386547808
-0.0015004464415227
0.10476103228695
-0.0016867174832368
0.10478667923387
-0.0018722488133776
0.10481571931145
-0.002057392194376
0.1048484091302
-0.002243649361416
0.10488512882753
-0.0024332824077126
0.10492650151127
-0.0026278914217441
0.10497316932417
-0.0028287962704407
0.10502603086038
-0.0030354625420156
0.10508572035784
-0.0032482108053509
0.10515333675651
-0.0034647517569211
0.10522927381627
-0.0036868885324907
0.10531509691829
-0.0039104271859534
0.10541071810605
-0.0041419407502265
0.10551880133011
-0.0043712260161737
0.10563820118639
-0.0046162617814673
0.10577358368632
-0.0048485006632614
0.10592219531316
-0.0051162902329643
0.10609112885774
-0.0053395183466234
0.10627965940957
-0.0056503270699956
0.1064872576808
-0.0058255930039902
-0.0062462258778768
0.10672526909619
0.098780437553562
-8.6086029259283e-05
0.098782644359448
-0.00025980176087594
0.098786372559496
-0.00043611761158209
0.098791761849067
-0.00061115713078135
0.098798650124357
-0.00078504561811655
0.098807158041496
-0.00096113901008843
0.098817503739881
-0.0011418142580411
0.09882998249514
-0.0013271438292471
0.098844870932948
-0.0015153348076458
0.098862371127611
-0.0017042176072225
0.098882632920042
-0.0018925105360111
0.09890578553271
-0.0020805447379509
0.098932060320052
-0.0022699240804405
0.098961790429998
-0.002463012450061
0.098995547642508
-0.0026616485675897
0.099033932201997
-0.0028671807642539
0.099077844542842
-0.0030793748185865
0.099127903303287
-0.0032982695032221
0.099185295742477
-0.0035221441359765
0.099250328721568
-0.0037519214544435
0.099324859008162
-0.0039849574192077
0.099408350219078
-0.0042254319118496
0.09950449284669
-0.0044673685987474
0.099610289633575
-0.0047220585272733
0.099734052193444
-0.0049722631860102
0.099865884478278
-0.0052481224846623
0.10002486411685
-0.005498497955985
0.10018702891573
-0.0058124918425856
0.10039289066117
-0.0060314547242684
0.10063726882588
-0.0064906040149209
0.39443422843646
0.0046661242711545
0.38992612838908
0.0045081000658135
0.38558056642618
0.0043455619810343
0.38140194804419
0.0041786184001838
0.3773945613837
0.0040073866787038
0.37356258242397
0.0038319789782102
0.36991007072022
0.0036525117223831
0.36644096092997
0.0034691098092347
0.36315905369597
0.0032819072531745
0.36006800650176
0.0030910472137893
0.35717132460807
0.0028966819134651
0.35447235411356
0.0026989705147209
0.35197427688983
0.0024980772441444
0.34968010774661
0.0022941691640798
0.34759269224216
0.0020874155255115
0.34571470525517
0.0018779870085219
0.34404864808626
0.0016660571906296
0.34259684394207
0.0014518041663873
0.34136143008223
0.0012354138822162
0.34034434777073
0.001017082334384
0.33954732913677
0.0007970186570358
0.33897188220371
0.00057544695666133
0.33861926983844
0.0003526123890952
0.33849045103407
0.00012881882874695
0.33858632347514
-9.5872416462711e-05
0.33890746150599
-0.00032113800564771
0.33945404495762
-0.0005465834261953
0.34022605957049
-0.00077201458684881
0.34122323263302
-0.0009971730363102
0.34244503056402
-0.0012217979042483
0.34389066193886
-0.0014456313479891
0.34555908694555