/*--------------------------------*- C++ -*----------------------------------*\
| =========                 |                                                 |
| \\      /  F ield         | OpenFOAM: The Open Source CFD Toolbox           |
|  \\    /   O peration     | Version:  2112                                  |
|   \\  /    A nd           | Website:  www.openfoam.com                      |
|    \\/     M anipulation  |                                                 |
\*---------------------------------------------------------------------------*/
FoamFile
{
    version     2.0;
    format      ascii;
    arch        "LSB;label=32;scalar=64";
    class       volVectorField;
    location    "9.5";
    object      U;
}
// * * * * * * * * * * * * * * * * * * * * * * * * * * * * * * * * * * * * * //

dimensions      [0 1 -1 0 0 0 0];

internalField   nonuniform List<vector> 
22000
(
(1.0000009778378 -2.5656559271036e-05 0)
(1.0000265134898 -7.7217217404761e-05 0)
(1.0000757245161 -0.00012859918578164 0)
(1.000149686428 -0.0001797742975786 0)
(1.000248838532 -0.00023076464564305 0)
(1.0003731322853 -0.00028154169530151 0)
(1.000522283781 -0.0003320269367141 0)
(1.0006959884769 -0.00038214638300154 0)
(1.0008939904735 -0.00043183478794586 0)
(1.0011160774366 -0.00048104779030144 0)
(1.0013620248999 -0.00052967624455839 0)
(1.0016315594972 -0.00057758220003402 0)
(1.0019242818371 -0.00062451522436249 0)
(1.0022396909893 -0.00067029761786906 0)
(1.0025771393827 -0.00071466597846645 0)
(1.0029359587689 -0.00075761128392262 0)
(1.003315362111 -0.00079891853473898 0)
(1.0037146722407 -0.00083883290189936 0)
(1.0041330425644 -0.00087700161940946 0)
(1.0045698924334 -0.00091398939477192 0)
(1.0050242633231 -0.00094895205218094 0)
(1.0054957351583 -0.00098311892165618 0)
(1.005983071242 -0.0010145547516871 0)
(1.0064861732768 -0.0010460966044785 0)
(1.0070032557218 -0.0010733782379601 0)
(1.0075349417132 -0.0011029535638739 0)
(1.0080783546837 -0.0011248169694969 0)
(1.0086356203234 -0.0011540193411765 0)
(1.0092016474839 -0.0011674996599816 0)
(1.0097816031564 -0.001199965278297 0)
(1.0000004332989 -7.5636270505243e-05 0)
(1.0000261244605 -0.00022781405212457 0)
(1.0000759699903 -0.00037966899178098 0)
(1.0001509520711 -0.00053103158312418 0)
(1.0002515358933 -0.00068192293947875 0)
(1.0003777422529 -0.00083225674906196 0)
(1.0005293471378 -0.00098180795765968 0)
(1.0007060902363 -0.0011303536880833 0)
(1.0009077294903 -0.0012776869219225 0)
(1.0011340619452 -0.0014236585151763 0)
(1.0013848450383 -0.0015679350709853 0)
(1.0016598125867 -0.0017101037199063 0)
(1.0019585355896 -0.0018494302000265 0)
(1.0022805512039 -0.0019853912592933 0)
(1.0026251646033 -0.0021172175579058 0)
(1.0029918005775 -0.0022448725290663 0)
(1.0033795575173 -0.0023677270244785 0)
(1.0037879491674 -0.0024864763375966 0)
(1.0042158492047 -0.0026000963891959 0)
(1.0046630849064 -0.0027102011694464 0)
(1.0051280657803 -0.0028143548809674 0)
(1.0056112744011 -0.0029160806865335 0)
(1.0061100923905 -0.0030098126342805 0)
(1.0066264212923 -0.0031036905294868 0)
(1.0071554667105 -0.0031851892794287 0)
(1.0077022676994 -0.0032730879722278 0)
(1.0082573844795 -0.0033387449321277 0)
(1.0088326350364 -0.003425180940317 0)
(1.0094086955074 -0.0034665231412474 0)
(1.0100118564979 -0.0035617388022959 0)
(1.0000004741507 -0.00012398730362205 0)
(1.0000274142633 -0.00037362953812 0)
(1.0000795965143 -0.00062300804470832 0)
(1.0001579471045 -0.00087168600601709 0)
(1.0002628677638 -0.0011196597617762 0)
(1.000394371016 -0.0013668428908155 0)
(1.000552264297 -0.0016129126525962 0)
(1.0007363358886 -0.0018574922528212 0)
(1.000946362948 -0.0021001830497979 0)
(1.0011821513714 -0.0023406744690872 0)
(1.0014434202581 -0.0025783808605764 0)
(1.0017298995444 -0.0028126332819727 0)
(1.0020411067225 -0.0030422675422159 0)
(1.0023766367112 -0.003266484594478 0)
(1.0027357290925 -0.00348405738744 0)
(1.0031179672729 -0.0036949498655743 0)
(1.0035222790556 -0.0038980953383896 0)
(1.0039484966069 -0.0040946253422904 0)
(1.0043950407348 -0.0042827712566653 0)
(1.0048624168133 -0.0044652127696333 0)
(1.0053479754118 -0.0046378115903998 0)
(1.0058537269109 -0.0048065066060927 0)
(1.0063746856989 -0.0049618765518594 0)
(1.006916212774 -0.0051177051735704 0)
(1.0074682358526 -0.005252762856035 0)
(1.0080436061171 -0.005398894599116 0)
(1.0086210750079 -0.0055074903407767 0)
(1.009230035598 -0.0056515649208042 0)
(1.0098248762048 -0.0057192464880331 0)
(1.0104713451988 -0.0058785830336515 0)
(1.0000005086175 -0.0001719347136322 0)
(1.0000289135789 -0.00051816014592215 0)
(1.0000839720522 -0.00086419613214851 0)
(1.0001666317607 -0.001209213871152 0)
(1.0002772535383 -0.0015532179999513 0)
(1.0004158354898 -0.0018962503678989 0)
(1.0005822084567 -0.002237981306578 0)
(1.0007762140132 -0.0025778769708768 0)
(1.0009976523974 -0.0029152707519999 0)
(1.0012463437433 -0.0032496044619155 0)
(1.0015219557765 -0.0035799969432348 0)
(1.0018242141237 -0.0039055545003906 0)
(1.0021525607047 -0.0042247658147017 0)
(1.002506673317 -0.0045366680016777 0)
(1.0028857010267 -0.0048396491770781 0)
(1.0032894579436 -0.0051337243670044 0)
(1.0037166344606 -0.0054173477808767 0)
(1.0041675239115 -0.0056920780693099 0)
(1.0046399066035 -0.0059552754160689 0)
(1.0051352634251 -0.0062107337623477 0)
(1.0056494378401 -0.0064524125699512 0)
(1.0061866293445 -0.0066888997077036 0)
(1.0067384764725 -0.0069065111836635 0)
(1.0073152889971 -0.0071252841941573 0)
(1.0078994656797 -0.0073143168532794 0)
(1.0085150224078 -0.0075199745047537 0)
(1.009123875087 -0.0076713832543812 0)
(1.0097805184243 -0.0078749835114344 0)
(1.0104018992596 -0.0079675536089603 0)
(1.0111100489449 -0.0081942280109012 0)
(1.0000005509393 -0.00021979635166938 0)
(1.0000306755913 -0.00066242515580479 0)
(1.0000891230564 -0.0011050251761706 0)
(1.0001768774935 -0.0015461914887168 0)
(1.0002942614205 -0.0019859575995073 0)
(1.0004412636244 -0.0024246431199907 0)
(1.0006177481742 -0.0028620225850567 0)
(1.000823625917 -0.0032974060417685 0)
(1.0010587290121 -0.0037297722645055 0)
(1.001322900831 -0.0041582154314622 0)
(1.0016157505524 -0.0045815064338396 0)
(1.0019370068728 -0.0049985600097038 0)
(1.0022860230183 -0.0054076085026329 0)
(1.0026625923227 -0.0058076515543587 0)
(1.0030657553341 -0.0061967713914002 0)
(1.0034956331147 -0.0065750935144601 0)
(1.003950618351 -0.0069405388686847 0)
(1.0044316106214 -0.0072950900667853 0)
(1.004935573786 -0.0076350763330417 0)
(1.0054652602532 -0.0079654808637335 0)
(1.0060145819935 -0.0082780966544982 0)
(1.0065905736402 -0.0085844770638809 0)
(1.0071805407295 -0.0088661265158566 0)
(1.0078011757704 -0.0091501567072782 0)
(1.0084252146935 -0.0093946966495015 0)
(1.0090910302919 -0.0096625890366512 0)
(1.0097389485785 -0.0098576303542658 0)
(1.0104556620806 -0.01012428850847 0)
(1.0111101433522 -0.010240865823495 0)
(1.0118964612827 -0.010540280767717 0)
(1.0000005986632 -0.00026775376055137 0)
(1.000032616353 -0.0008069899040573 0)
(1.0000948028203 -0.0013464851753518 0)
(1.000188181277 -0.0018840502797558 0)
(1.0003130300776 -0.0024197657492411 0)
(1.0004693337238 -0.0029543926044886 0)
(1.0006570054619 -0.003487932067351 0)
(1.0008760482752 -0.0040195378548667 0)
(1.0011263407642 -0.0045477358308596 0)
(1.0014077621579 -0.0050711591629148 0)
(1.001719859297 -0.0055881708983483 0)
(1.0020623745392 -0.0060975308063447 0)
(1.0024345644145 -0.0065973161370826 0)
(1.0028363752542 -0.0070866314570302 0)
(1.0032667285937 -0.0075633411605413 0)
(1.0037261337735 -0.0080277503950653 0)
(1.0042126358746 -0.00847718395085 0)
(1.00472788877 -0.0089140507591977 0)
(1.0052678797395 -0.0093334625251345 0)
(1.0058369242585 -0.0097416894273003 0)
(1.0064266069817 -0.010128041821158 0)
(1.0070474195327 -0.010507425490277 0)
(1.0076814367664 -0.010855870254549 0)
(1.0083530922352 -0.011208557142102 0)
(1.0090234600804 -0.011511081885252 0)
(1.00974826494 -0.011845125677632 0)
(1.0104418007673 -0.012085468339763 0)
(1.0112295763518 -0.012420128878067 0)
(1.0119227994946 -0.012560385661739 0)
(1.0128022222532 -0.012939718163069 0)
(1.0000006498221 -0.00031582811997014 0)
(1.0000346352538 -0.00095192281022811 0)
(1.0001007214366 -0.0015887093788926 0)
(1.0001999725747 -0.0022229936469156 0)
(1.0003326170672 -0.0028549238895099 0)
(1.0004986406629 -0.003485878662004 0)
(1.000698022856 -0.0041162185758281 0)
(1.0009308834352 -0.0047449427909175 0)
(1.0011971649109 -0.0053700213907923 0)
(1.001496798365 -0.0059895072929319 0)
(1.0018292691863 -0.0066012937876025 0)
(1.0021943485002 -0.0072040270554263 0)
(1.0025911941927 -0.00779573996955 0)
(1.0030199476938 -0.0083757973780969 0)
(1.0034794084812 -0.0089419420922626 0)
(1.0039705592775 -0.009494736871145 0)
(1.004491058189 -0.010030843041527 0)
(1.0050434624817 -0.010553104758009 0)
(1.0056226405453 -0.01105521163984 0)
(1.0062347550778 -0.01154483843518 0)
(1.0068687022471 -0.012008458165474 0)
(1.0075390213641 -0.012464772052284 0)
(1.0082217324233 -0.012883583270371 0)
(1.0089502812693 -0.013309271714447 0)
(1.0096722430343 -0.01367312572599 0)
(1.0104634672157 -0.014078335518792 0)
(1.0112081468388 -0.01436649291616 0)
(1.0120766905622 -0.014775395321446 0)
(1.0128136068354 -0.014939658204143 0)
(1.0137997276268 -0.015407683699408 0)
(1.0000007021118 -0.00036389441042803 0)
(1.0000366318961 -0.0010968503659646 0)
(1.0001065891312 -0.0018310875947018 0)
(1.000211678778 -0.0025621822011051 0)
(1.00035207459 -0.0032903745470423 0)
(1.000527770222 -0.0040178460075337 0)
(1.0007388296882 -0.0047454574703461 0)
(1.0009855154571 -0.0054720589552174 0)
(1.0012678537829 -0.0061949618914184 0)
(1.001585846616 -0.0069115186302355 0)
(1.0019389234303 -0.0076190919560484 0)
(1.002326903577 -0.0083162607977046 0)
(1.0027488504963 -0.0090011322485362 0)
(1.0032051469524 -0.0096734967542094 0)
(1.0036944752101 -0.010331078791727 0)
(1.0042183793082 -0.010974784556323 0)
(1.0047741032792 -0.011600543357685 0)
(1.0053652562571 -0.012211650877852 0)
(1.0059854677095 -0.012800158614844 0)
(1.0066430205631 -0.013375281311325 0)
(1.0073238049271 -0.013920271253061 0)
(1.0080469593164 -0.014458113777488 0)
(1.0087817156888 -0.014951563698811 0)
(1.0095716928968 -0.015455435414916 0)
(1.0103493304317 -0.015884771508224 0)
(1.0112131047345 -0.016367181603198 0)
(1.0120134810911 -0.016706526005643 0)
(1.0129712166982 -0.017197147997479 0)
(1.0137561838011 -0.017386535309704 0)
(1.0148612366221 -0.017953577971692 0)
(1.0000007537869 -0.00041171315443705 0)
(1.0000385076424 -0.0012410547475729 0)
(1.0001121189583 -0.002072432066383 0)
(1.0002227322739 -0.0028999696927552 0)
(1.0003704628854 -0.0037240274995597 0)
(1.0005553203116 -0.0045477789178468 0)
(1.0007774722544 -0.0053727308055613 0)
(1.0010373502304 -0.0061975939024485 0)
(1.0013350856166 -0.0070189221680803 0)
(1.0016707725354 -0.007833250440469 0)
(1.0020437944637 -0.0086373543903927 0)
(1.0024540423376 -0.0094297968952355 0)
(1.0029004956027 -0.010208884108903 0)
(1.0033838276444 -0.010975004019123 0)
(1.0039026165236 -0.011725972199716 0)
(1.0044590561255 -0.012463130455046 0)
(1.0050499629733 -0.013181610796005 0)
(1.0056801421791 -0.013885183901872 0)
(1.0063418906352 -0.014564045156839 0)
(1.0070458668827 -0.015229098715527 0)
(1.0077746910762 -0.015859978514041 0)
(1.0085525992678 -0.016484475908331 0)
(1.0093414162134 -0.017057431258007 0)
(1.0101959578861 -0.017645404138326 0)
(1.011032135545 -0.018145143849808 0)
(1.0119732232719 -0.018711750713279 0)
(1.0128328644025 -0.019106561706365 0)
(1.0138868527091 -0.019687589512763 0)
(1.0147236581156 -0.019904174639583 0)
(1.0159584006957 -0.020582048594427 0)
(1.0000008026127 -0.00045896217589898 0)
(1.0000401676622 -0.0013835682745362 0)
(1.0001170358148 -0.0023111341429421 0)
(1.0002325881855 -0.003234120394054 0)
(1.0003868795443 -0.0041530359289936 0)
(1.0005799442416 -0.005072234263659 0)
(1.0008120727978 -0.0059940151816269 0)
(1.0010838914753 -0.0069169649021032 0)
(1.0013956587495 -0.0078367887744338 0)
(1.0017475834947 -0.0087490945631654 0)
(1.0021390169419 -0.0096500211002083 0)
(1.0025699476389 -0.010538170912686 0)
(1.0030392875158 -0.011412179001992 0)
(1.0035480505434 -0.012273205648335 0)
(1.0040947323885 -0.013119273574259 0)
(1.0046822615612 -0.013952255247628 0)
(1.0053070304552 -0.014766431235568 0)
(1.0059751727847 -0.01556607216963 0)
(1.0066775929828 -0.016339314462322 0)
(1.0074275520352 -0.01709890044967 0)
(1.0082042023293 -0.01782046060383 0)
(1.0090373061642 -0.018537120837608 0)
(1.0098807989564 -0.019194934200404 0)
(1.01080154463 -0.019873548378271 0)
(1.0116978340744 -0.020449330322821 0)
(1.0127195151 -0.021108009195422 0)
(1.0136409431654 -0.021563516148571 0)
(1.0147967671109 -0.022244790546816 0)
(1.0156886451261 -0.022491774193028 0)
(1.0170622301806 -0.023293712292673 0)
(1.0000008468695 -0.00050526591144635 0)
(1.0000415248497 -0.0015232621460923 0)
(1.0001210851531 -0.0025453118580905 0)
(1.0002407424518 -0.0035620140299139 0)
(1.0004004902353 -0.0045740572237736 0)
(1.0006003969126 -0.005587156816757 0)
(1.0008408937362 -0.0066045501536124 0)
(1.0011228251239 -0.007624718578325 0)
(1.0014465979053 -0.0086424383556388 0)
(1.0018125580698 -0.009652291298257 0)
(1.002220041672 -0.010649738997219 0)
(1.002669161406 -0.011633482766977 0)
(1.0031587847636 -0.012602620453016 0)
(1.0036903121197 -0.013559256594891 0)
(1.0042621912988 -0.014501747025914 0)
(1.0048781553108 -0.015432583290722 0)
(1.0055342059179 -0.016345169450399 0)
(1.0062379021794 -0.017244279042523 0)
(1.0069787620123 -0.018115846562546 0)
(1.0077728007963 -0.018974545249934 0)
(1.0085956294588 -0.019791710791588 0)
(1.0094828239515 -0.020606245039265 0)
(1.0103801641296 -0.021354647826652 0)
(1.0113671524337 -0.022130897968605 0)
(1.012323758588 -0.022789025278879 0)
(1.0134276651701 -0.023548347844298 0)
(1.0144122526664 -0.024070773992257 0)
(1.0156738134168 -0.024863140415179 0)
(1.0166233579343 -0.025145037520851 0)
(1.0181431799047 -0.02608559766329 0)
(1.0000008846546 -0.00055022337574904 0)
(1.0000425026939 -0.0016589298368553 0)
(1.0001240439296 -0.0027729485728736 0)
(1.000246752569 -0.0038808386121859 0)
(1.0004105618094 -0.0049834984918496 0)
(1.0006155829663 -0.0060881762030485 0)
(1.0008624034012 -0.0071991854767724 0)
(1.0011521052242 -0.0083149269713675 0)
(1.0014852630174 -0.00942918030717 0)
(1.0018623800572 -0.010535415570024 0)
(1.0022827974042 -0.011628387794245 0)
(1.0027467751478 -0.012706958077026 0)
(1.003253168831 -0.01377082453616 0)
(1.0038037963458 -0.014823199077429 0)
(1.0043971189108 -0.015862910707166 0)
(1.0050376975299 -0.016893139721785 0)
(1.0057212557994 -0.017906441503652 0)
(1.0064567509198 -0.018908035547777 0)
(1.0072325220724 -0.019881647603899 0)
(1.0080672051522 -0.0208437989882 0)
(1.0089332207396 -0.021761534851427 0)
(1.0098716938531 -0.022679590712166 0)
(1.0108207349802 -0.023524677398814 0)
(1.01187213345 -0.024405695991562 0)
(1.0128880741583 -0.025153198159291 0)
(1.0140737747381 -0.026022056834256 0)
(1.0151219156191 -0.026618740121079 0)
(1.0164908574337 -0.027533571696676 0)
(1.0175000055374 -0.027856375374524 0)
(1.0191715672485 -0.028951445773011 0)
(1.0000009145326 -0.0005934335959208 0)
(1.0000430387203 -0.00178936365237 0)
(1.000125727964 -0.0029920205536455 0)
(1.0002502533167 -0.0041877675360708 0)
(1.0004164898179 -0.0053777419051108 0)
(1.0006245985608 -0.0065708797944104 0)
(1.000875334514 -0.0077727010281798 0)
(1.0011700316922 -0.0089815536164028 0)
(1.0015094490623 -0.010190167103523 0)
(1.0018942632863 -0.011390829118908 0)
(1.0023238431847 -0.012577570144301 0)
(1.0027986125487 -0.013749473909797 0)
(1.0033174582236 -0.014906975033065 0)
(1.0038826237129 -0.016054547996259 0)
(1.0044926798009 -0.017191640695178 0)
(1.0051529699445 -0.018322180641403 0)
(1.0058591662885 -0.019437950432106 0)
(1.0066213953046 -0.020544492175367 0)
(1.0074273733112 -0.021623507327239 0)
(1.0082976430348 -0.022692962914847 0)
(1.0092027575301 -0.023716241580492 0)
(1.0101875988383 -0.024742981903905 0)
(1.0111854735555 -0.025691421477696 0)
(1.0122966150303 -0.026683754302709 0)
(1.0133710922006 -0.02752911271211 0)
(1.0146339278347 -0.02851519863812 0)
(1.0157484629653 -0.029196819646279 0)
(1.0172186202484 -0.030242116952319 0)
(1.018297313173 -0.030619561065666 0)
(1.0201166153224 -0.031880956053497 0)
(1.0000009353322 -0.00063451918052554 0)
(1.0000430880296 -0.0019134261816321 0)
(1.0001260030399 -0.0032006150832094 0)
(1.0002509759898 -0.0044801219228885 0)
(1.0004178266645 -0.0057533494219685 0)
(1.0006267703643 -0.0070310594653477 0)
(1.0008787362119 -0.0083200958762525 0)
(1.0011753182812 -0.009618784730192 0)
(1.001517472194 -0.010918766413197 0)
(1.0019060596429 -0.012211091465516 0)
(1.0023404979962 -0.013489058903829 0)
(1.0028213886027 -0.014752039213078 0)
(1.0033476880152 -0.016001334581139 0)
(1.0039220768156 -0.017242830196455 0)
(1.004543306479 -0.018476731970636 0)
(1.0052174961523 -0.019707787496425 0)
(1.0059403987879 -0.020927062329271 0)
(1.006723242685 -0.022140394598883 0)
(1.0075533944405 -0.023327492955642 0)
(1.0084530353412 -0.024507717862842 0)
(1.0093915303625 -0.025640901006725 0)
(1.0104165897526 -0.026781397203883 0)
(1.0114585884267 -0.02783954517542 0)
(1.0126233455623 -0.028949707827168 0)
(1.0137538873832 -0.029901821237157 0)
(1.0150871401794 -0.031012667276221 0)
(1.0162701356854 -0.031791481498313 0)
(1.017832241709 -0.032974087727567 0)
(1.0189908696325 -0.033423953031784 0)
(1.0209508933261 -0.034862704510889 0)
(1.000000946355 -0.00067314344931584 0)
(1.0000426251964 -0.0020301024823589 0)
(1.0001247929817 -0.0033970185525091 0)
(1.0002487644865 -0.0047554948693622 0)
(1.0004143046811 -0.0061072238333861 0)
(1.0006216841603 -0.0074649099666264 0)
(1.0008720086368 -0.0088368241278254 0)
(1.0011671349805 -0.010221302423352 0)
(1.0015082225154 -0.01160887146841 0)
(1.0018963247824 -0.012989306499549 0)
(1.0023309241565 -0.014355179266578 0)
(1.0028128104972 -0.015706209829589 0)
(1.0033410401701 -0.017044692997019 0)
(1.003918742924 -0.018378058924829 0)
(1.0045448999974 -0.019707408870996 0)
(1.005226417241 -0.021038381552626 0)
(1.005959205591 -0.022361391863461 0)
(1.006755603826 -0.023682578080535 0)
(1.0076027476953 -0.024979671469737 0)
(1.0085244597043 -0.026273480210309 0)
(1.0094890907964 -0.027520244674312 0)
(1.0105471703106 -0.02877922414141 0)
(1.0116263967339 -0.029952729300624 0)
(1.0128380860143 -0.031187591300664 0)
(1.0140187094306 -0.032254273417159 0)
(1.015416701668 -0.033499139874517 0)
(1.0166636854906 -0.034385090477386 0)
(1.0183137685094 -0.035716859922967 0)
(1.0195500807359 -0.036250775615941 0)
(1.02164901229 -0.037882461412247 0)
(1.0000009470215 -0.00070902100648525 0)
(1.0000416420191 -0.0021385298269379 0)
(1.0001220745794 -0.0035797690943223 0)
(1.0002435659399 -0.0050118309438603 0)
(1.0004058242661 -0.0064367174385797 0)
(1.0006091746933 -0.0078691685757433 0)
(1.0008548972056 -0.0093189675194063 0)
(1.0011451076447 -0.010784491695597 0)
(1.001481169812 -0.012255142909327 0)
(1.0018643310968 -0.013719398770015 0)
(1.0022941500919 -0.015169118353188 0)
(1.0027716127021 -0.016604431321381 0)
(1.0032958956213 -0.018028740748383 0)
(1.0038705859289 -0.019451141317272 0)
(1.0044949258454 -0.020873758323914 0)
(1.0051766177761 -0.022303195480897 0)
(1.0059117829505 -0.023729285905745 0)
(1.0067138862336 -0.025158502453937 0)
(1.007569920824 -0.026566622752149 0)
(1.0085053739043 -0.027975980694635 0)
(1.0094877177015 -0.029339240646851 0)
(1.0105703330054 -0.03072068379611 0)
(1.0116784333335 -0.032014651923928 0)
(1.0129288514594 -0.033380512708241 0)
(1.0141517934847 -0.034569328428376 0)
(1.0156071545269 -0.035957143453252 0)
(1.0169116347106 -0.036960316627209 0)
(1.018643909573 -0.038453038606243 0)
(1.0199537183444 -0.039083351402033 0)
(1.0221875068865 -0.040923440959507 0)
(1.000000937308 -0.00074192743124353 0)
(1.0000401477983 -0.0022380275260793 0)
(1.0001178698951 -0.0037477075660964 0)
(1.0002354163366 -0.0052474970226056 0)
(1.0003924352644 -0.0067397215155322 0)
(1.0005893028625 -0.0082412233500765 0)
(1.0008274667692 -0.0097633643173425 0)
(1.0011092918182 -0.011304593044338 0)
(1.0014363398484 -0.012853188316146 0)
(1.0018100476298 -0.014396321804911 0)
(1.0022300549666 -0.015925162711788 0)
(1.002697546672 -0.017440305138731 0)
(1.0032118313377 -0.018946363916467 0)
(1.0037769534309 -0.020454202051818 0)
(1.004392433463 -0.021967084315932 0)
(1.0050667674171 -0.023492657384211 0)
(1.0057963265888 -0.025020239025853 0)
(1.006595699156 -0.026556703524753 0)
(1.0074518211334 -0.028075898121893 0)
(1.0083918410217 -0.029601805365152 0)
(1.0093825011943 -0.031083527208029 0)
(1.0104800308756 -0.0325905234514 0)
(1.011607376824 -0.034009251278759 0)
(1.0128869033057 -0.035511651712679 0)
(1.0141428075201 -0.036829626271365 0)
(1.0156465012867 -0.038368728346314 0)
(1.0170000783968 -0.039499041700834 0)
(1.018806829403 -0.041164095329459 0)
(1.0201837279283 -0.041903676794046 0)
(1.0225458374842 -0.043966780810098 0)
(1.0000009176131 -0.00077170600471565 0)
(1.0000381658545 -0.0023281190447622 0)
(1.0001122430874 -0.0039000137302316 0)
(1.00022443651 -0.0054613307873838 0)
(1.0003743302123 -0.00701472639548 0)
(1.0005623449877 -0.0085791850971285 0)
(1.0007900837229 -0.010167694005072 0)
(1.0010601434211 -0.011778800689623 0)
(1.0013742729708 -0.013399675729327 0)
(1.0017340887214 -0.015016189607119 0)
(1.0021393124592 -0.016618851746946 0)
(1.0025913212352 -0.018208766946137 0)
(1.0030895615212 -0.01979185044689 0)
(1.0036385179469 -0.021380818516575 0)
(1.0042380035285 -0.022980174496414 0)
(1.0048972720002 -0.024598689447844 0)
(1.0056129970779 -0.026225223886264 0)
(1.0064008304578 -0.027867157687886 0)
(1.0072477779657 -0.029496415927974 0)
(1.0081825622287 -0.031138816827914 0)
(1.0091714041874 -0.032739876541501 0)
(1.0102732982756 -0.034374474431615 0)
(1.0114091740085 -0.03592122882477 0)
(1.0127069385384 -0.037564762313129 0)
(1.0139849962511 -0.039018095062182 0)
(1.0155264639097 -0.04071608589103 0)
(1.0169189572817 -0.041983013663454 0)
(1.0187906677231 -0.043831170320431 0)
(1.0202260372024 -0.044692921670564 0)
(1.0227073125531 -0.046992434064975 0)
(1.0000008885431 -0.00079826683767794 0)
(1.0000357316291 -0.0024085302844428 0)
(1.000105293085 -0.0040362077274972 0)
(1.0002108177054 -0.0056526468223801 0)
(1.0003518226428 -0.0072608329520076 0)
(1.0005287627332 -0.0088819069598634 0)
(1.0007433778722 -0.010530509836815 0)
(1.000998471638 -0.012205312221896 0)
(1.0012959651428 -0.013892402065038 0)
(1.0016376380792 -0.015576362642852 0)
(1.0020232968637 -0.01724708109933 0)
(1.0024544924552 -0.018906207097663 0)
(1.0029308158027 -0.020561032831645 0)
(1.0034571479509 -0.022226186561596 0)
(1.0040336127078 -0.023907500920485 0)
(1.0046701433569 -0.025614939378209 0)
(1.0053637854199 -0.027336978020086 0)
(1.0061311326666 -0.029081597377553 0)
(1.0069594270324 -0.030818857385817 0)
(1.0078787910939 -0.032576559644494 0)
(1.0088552026557 -0.034296695444457 0)
(1.0099502032608 -0.036059758503817 0)
(1.0110830898392 -0.037736601865502 0)
(1.0123870606594 -0.039524757343483 0)
(1.0136752973048 -0.041118427420728 0)
(1.0152423045719 -0.042982158851903 0)
(1.0166621984792 -0.044394169734139 0)
(1.0185874485339 -0.046436197206245 0)
(1.0200710629515 -0.047432356637197 0)
(1.0226597898254 -0.049980251155557 0)
(1.0000008506877 -0.00082157959585144 0)
(1.0000328828016 -0.0024791668936097 0)
(1.0000971352898 -0.0041561177513127 0)
(1.0001947967513 -0.0058212025106973 0)
(1.0003253126516 -0.0074777194453261 0)
(1.0004891528728 -0.0091489497551782 0)
(1.0006881721603 -0.010851202034751 0)
(1.0009253486107 -0.012583295032387 0)
(1.0012027638169 -0.014330274936249 0)
(1.0015223335997 -0.016075456614145 0)
(1.0018839588597 -0.017808146970205 0)
(1.0022893232295 -0.019530549963411 0)
(1.0027381829315 -0.021251403503945 0)
(1.0032357274992 -0.022987260664466 0)
(1.0037824344278 -0.02474539196524 0)
(1.0043887716426 -0.026536969802679 0)
(1.0050522743835 -0.028350234055137 0)
(1.0057902585803 -0.030193774788142 0)
(1.0065904677724 -0.032035987970232 0)
(1.0074840517447 -0.033906653052206 0)
(1.0084373005984 -0.035744480531607 0)
(1.0095135585035 -0.037635668358139 0)
(1.0106317017844 -0.039443312812714 0)
(1.011928510545 -0.041378564134966 0)
(1.0132146602985 -0.043115670579646 0)
(1.0147923879709 -0.045151524654585 0)
(1.0162276287688 -0.046714799431824 0)
(1.01819218451 -0.048961891018532 0)
(1.019712956691 -0.050104582949227 0)
(1.0223954121931 -0.052911894981334 0)
(1.000000803563 -0.00084167103722568 0)
(1.0000296550747 -0.0025400907254062 0)
(1.0000878792298 -0.00425981569629 0)
(1.0001766165337 -0.0059670868326259 0)
(1.0002952435478 -0.0076654976869165 0)
(1.0004442041052 -0.0093804218012061 0)
(1.0006254293859 -0.011129821801857 0)
(1.0008420270041 -0.012912679576317 0)
(1.001096244235 -0.014713059737823 0)
(1.0013901012001 -0.016513039354648 0)
(1.0017236311035 -0.018301403563348 0)
(1.0020985704068 -0.020080888500008 0)
(1.0025148979525 -0.021861747049109 0)
(1.0029779311832 -0.023662387524076 0)
(1.0034886191416 -0.025491676028391 0)
(1.0040576632965 -0.027361878678591 0)
(1.0046833737187 -0.029261316956917 0)
(1.0053833157337 -0.031198962877623 0)
(1.0061463125927 -0.033142087965596 0)
(1.0070037224474 -0.035122017341665 0)
(1.0079232516649 -0.037074984871737 0)
(1.0089685424125 -0.039092310867334 0)
(1.0100601877137 -0.041030172802989 0)
(1.0113356631687 -0.043113132251823 0)
(1.0126073034421 -0.044995349314419 0)
(1.0141790588713 -0.047207504428979 0)
(1.0156172720148 -0.04892577377136 0)
(1.0176003711837 -0.051387619968926 0)
(1.0191515956266 -0.052682976946595 0)
(1.0218946573433 -0.055763594687006 0)
(1.0000007472978 -0.00085865004718914 0)
(1.0000261269834 -0.0025915852769673 0)
(1.0000777102422 -0.0043476755241507 0)
(1.0001566040084 -0.0060906920268515 0)
(1.0002621421387 -0.0078245326546685 0)
(1.0003947093568 -0.0095766356119535 0)
(1.0005562689248 -0.011366607473419 0)
(1.0007499820272 -0.013193591598104 0)
(1.0009782638354 -0.015040720381934 0)
(1.0012431899201 -0.016888845523908 0)
(1.0015450097328 -0.018726285104462 0)
(1.0018853948301 -0.020556248867352 0)
(1.0022646843581 -0.022390589196101 0)
(1.002688006594 -0.024249430101601 0)
(1.0031570654001 -0.026143485490363 0)
(1.003682185557 -0.028085823232684 0)
(1.00426314657 -0.030065409532533 0)
(1.0049166461372 -0.032090934799439 0)
(1.0056340687646 -0.034129650284989 0)
(1.0064448441658 -0.036213079971044 0)
(1.0073209886971 -0.038276981111512 0)
(1.0083224237769 -0.040415465172001 0)
(1.0093768253363 -0.042480908304323 0)
(1.0106153433491 -0.044708154526562 0)
(1.0118612571414 -0.046734808499977 0)
(1.0134087530576 -0.04912270821328 0)
(1.0148387149199 -0.050996746267085 0)
(1.0168173519724 -0.053674741403788 0)
(1.0183853070579 -0.055123845089041 0)
(1.0211655459931 -0.058476633170334 0)
(1.0000006842711 -0.0008727770319521 0)
(1.0000224910892 -0.0026343996991889 0)
(1.0000670973338 -0.0044208451822666 0)
(1.0001355372906 -0.0061934779664254 0)
(1.0002270679441 -0.0079564029190291 0)
(1.0003419742779 -0.0097390779935464 0)
(1.0004822499491 -0.011562821491294 0)
(1.0006510872169 -0.013427052183545 0)
(1.0008510892652 -0.01531410511178 0)
(1.0010843363278 -0.017203637569132 0)
(1.0013513863949 -0.019083505949348 0)
(1.0016536851693 -0.020957220099634 0)
(1.0019920800962 -0.022838210523006 0)
(1.0023710821426 -0.024748102617205 0)
(1.0027935778173 -0.026699793764148 0)
(1.0032686616133 -0.028706827354177 0)
(1.0037987693955 -0.030759686527627 0)
(1.004397851978 -0.032865764358934 0)
(1.0050626535927 -0.03499408787486 0)
(1.005816367595 -0.037173837121011 0)
(1.0066416654256 -0.039344043098864 0)
(1.0075851022901 -0.04159641039852 0)
(1.0085954086026 -0.043786515865646 0)
(1.0097768600061 -0.046151007931752 0)
(1.0109929569305 -0.048320537648639 0)
(1.0124875948823 -0.050881022231032 0)
(1.013914195694 -0.052907566963209 0)
(1.0158481360652 -0.05581238528534 0)
(1.0174531533396 -0.057390196398718 0)
(1.0202133682566 -0.06107772057648 0)
(1.0000006147746 -0.00088459067178293 0)
(1.000018927887 -0.002670169470197 0)
(1.0000564744256 -0.0044820064243184 0)
(1.0001142534318 -0.0062795656086445 0)
(1.0001913835132 -0.0080669275925792 0)
(1.0002878015232 -0.0098752984166801 0)
(1.0004053795582 -0.011727657437543 0)
(1.0005473700783 -0.013623842050088 0)
(1.0007166371542 -0.015545832933754 0)
(1.0009154575342 -0.017472245234557 0)
(1.0011449278196 -0.019390547765528 0)
(1.0014062247691 -0.021304504250676 0)
(1.0017006431154 -0.023229087306711 0)
(1.0020316454278 -0.025187201809881 0)
(1.0024033524458 -0.027194207039975 0)
(1.0028230028891 -0.029263864128321 0)
(1.0032965182097 -0.031389240751382 0)
(1.0038337081126 -0.03357549501359 0)
(1.0044391828072 -0.035795997564008 0)
(1.0051257269494 -0.03807444370375 0)
(1.0058935997845 -0.040359258101371 0)
(1.0067641985002 -0.042731390772618 0)
(1.0077262988705 -0.045063631979523 0)
(1.0088261458783 -0.047575530102408 0)
(1.0100157660863 -0.049918083352007 0)
(1.0114134863662 -0.052670200163393 0)
(1.0128593820267 -0.05488989108209 0)
(1.0146759547811 -0.058080495692388 0)
(1.0164090628561 -0.059814772944751 0)
(1.0190732321862 -0.06415270357017 0)
(1.0000004990933 -0.00089549472539947 0)
(1.000014792822 -0.0027034157506431 0)
(1.0000447286645 -0.004540069932822 0)
(1.0000912355059 -0.0063631487616082 0)
(1.0001537170599 -0.0081763789082864 0)
(1.0002316021804 -0.01001283155272 0)
(1.0003264573924 -0.011896839987498 0)
(1.0004413610599 -0.01382850569717 0)
(1.0005795950579 -0.015788692205106 0)
(1.0007434834835 -0.017755300155237 0)
(1.0009346212013 -0.01971577124922 0)
(1.001154259065 -0.021674408225485 0)
(1.0014040790255 -0.023648190858087 0)
(1.0016867578604 -0.025661819058538 0)
(1.0020070836083 -0.027733387748237 0)
(1.0023707245212 -0.029876764317863 0)
(1.0027860132589 -0.032087707975426 0)
(1.0032597565489 -0.034368269137692 0)
(1.0038026711513 -0.036697496510058 0)
(1.0044198443641 -0.039090729484763 0)