/*--------------------------------*- C++ -*----------------------------------*\
| =========                 |                                                 |
| \\      /  F ield         | OpenFOAM: The Open Source CFD Toolbox           |
|  \\    /   O peration     | Version:  2112                                  |
|   \\  /    A nd           | Website:  www.openfoam.com                      |
|    \\/     M anipulation  |                                                 |
\*---------------------------------------------------------------------------*/
FoamFile
{
    version     2.0;
    format      ascii;
    arch        "LSB;label=32;scalar=64";
    class       volScalarField;
    location    "3.9";
    object      p;
}
// * * * * * * * * * * * * * * * * * * * * * * * * * * * * * * * * * * * * * //

dimensions      [0 2 -2 0 0 0 0];

internalField   nonuniform List<scalar> 
22000
(
0.074177669503357
0.074143924778766
0.074073578040146
0.07396499995654
0.073817576732745
0.073631435333678
0.073406948448388
0.07314444432484
0.072844159625196
0.072506298730925
0.072131081886542
0.071718764261884
0.071269630820745
0.070783990425048
0.070262164984492
0.069704517659078
0.06911146686175
0.068483525348926
0.067821254348549
0.067125261317739
0.066396063355575
0.065634221849745
0.064840363781695
0.06401550504027
0.063160549349774
0.062276532260199
0.061363904208804
0.060424022939338
0.059457340958312
0.058466251530434
0.074813886905895
0.074778426790531
0.074706033710779
0.074595296749877
0.074445554529116
0.074256810564119
0.074029341937659
0.073763427506343
0.073459277954722
0.073117073008348
0.072736999276804
0.072319271877922
0.071864134694107
0.071371860851141
0.070842737347668
0.070277100484615
0.069675341148247
0.069037963817764
0.06836552559816
0.067658644212922
0.066917771374544
0.066143417581236
0.065336128450141
0.064497008095593
0.063626867041064
0.062726851082841
0.061797089021334
0.060839275650665
0.059853171205489
0.05884171533093
0.075979075275776
0.075942653494079
0.075868454951631
0.075755168297577
0.075602169430954
0.075409436466511
0.07517719715746
0.074905682057546
0.074595058409856
0.074245465139101
0.073857045334574
0.073429967060686
0.072964419404197
0.072460614503194
0.071918766125884
0.071339145216096
0.07072207800797
0.070068038127844
0.069377542460884
0.068651187013647
0.06788929356021
0.067092316820473
0.066260677977762
0.065395639415919
0.064497821516496
0.063568619153723
0.062607592989619
0.061617132510091
0.060595677899933
0.059547401987141
0.077594303526381
0.077556954972696
0.077480871637672
0.07736472333967
0.077207872571123
0.07701027707483
0.076772130560688
0.076493616614043
0.0761748453954
0.07581589290301
0.075416832325893
0.074977757068169
0.074498771496481
0.073979998736383
0.073421553478732
0.072823620572007
0.072186429081294
0.071510381610786
0.070795893273153
0.070043503075222
0.069253364279444
0.06842588632496
0.067561293899685
0.066661013383781
0.065725338813319
0.06475603589556
0.063751851580908
0.062716151419211
0.061645380349281
0.060545449775017
0.079589652626529
0.079551345860041
0.079473304906197
0.079354169161512
0.079193269383543
0.078990525553645
0.078746082045606
0.078460059495547
0.078132491365205
0.077763366016842
0.07735265674958
0.076900350253185
0.076406432541136
0.075870904335109
0.075293743664949
0.074675008955805
0.074014780272732
0.073313343582871
0.072570963381174
0.071788100576209
0.070964694108073
0.070101096739257
0.069197244063917
0.068254729613199
0.067273373952044
0.066255423631321
0.06519854913328
0.064107374581752
0.06297571751303
0.061811787902308
0.081902923768898
0.081863739140714
0.08178390142736
0.081662021525933
0.081497390047578
0.081289872567096
0.08103954334025
0.080746436538144
0.08041048277528
0.08003155440388
0.079609493723806
0.079144148299724
0.078635351283048
0.078082944415958
0.077486726322471
0.076846584705252
0.076162397160383
0.075434279694142
0.074662276035359
0.073846716512508
0.072987252443459
0.072084154248123
0.071136968575654
0.070147454981342
0.06911479977754
0.068041837154685
0.066924892363015
0.065770137646613
0.064568131698293
0.063329896200587
0.084477872588122
0.08443801576876
0.084356794537641
0.084232794973724
0.084065260950367
0.083853988230725
0.083598960360069
0.083300101928484
0.082957215183709
0.082570027706215
0.08213821659933
0.081661451195737
0.081139366224665
0.080571596778779
0.079957710020335
0.079297373637574
0.078590206018903
0.077836101402182
0.077034812836857
0.076186485412925
0.075290406632829
0.074346732651496
0.073354518994379
0.072315668262061
0.07122855191924
0.070096665288127
0.068914687162423
0.067690592203412
0.066411013331251
0.065090236243332
0.087262824079068
0.087222618133154
0.087140664795898
0.087015532173547
0.086846412670208
0.086633017583823
0.086375219078991
0.086072807611645
0.085725428694828
0.085332633437837
0.084893898381871
0.084408677251722
0.083876365934426
0.083296351533902
0.082667921251148
0.081990470068711
0.081263289975084
0.08048598370667
0.079657926798615
0.078779005338049
0.07784805616309
0.076865060183068
0.075828467886882
0.074740272507933
0.073597845044139
0.07240541216101
0.071155652067577
0.069858640990103
0.068496347130147
0.067086758183507
0.090209846347598
0.090169721457094
0.090087903639657
0.089962952525894
0.089794005525946
0.089580675436033
0.08932270343468
0.089019723688337
0.088671200549458
0.088276481367057
0.087834810093251
0.087345387383829
0.086807325363674
0.086219712840695
0.085581499797346
0.084891748137195
0.084149357253141
0.083353568232309
0.082503303215652
0.081598102757389
0.080636281758614
0.079617549495495
0.078539664438198
0.077404621108103
0.076208574328745
0.074956614213343
0.07363883467305
0.072267867239763
0.07082012881577
0.069317460098166
0.093274342802761
0.093234820712832
0.093154192945143
0.093031019221207
0.092864380416817
0.092653779629827
0.092398810426278
0.092098931518278
0.091753403752695
0.091361344452818
0.090921733868911
0.090433484869502
0.089895385764805
0.089306184869097
0.088664446123411
0.0879688436244
0.087217818449965
0.086410173473015
0.085544297513959
0.084619281196342
0.083632847342345
0.082584301956531
0.081470639429002
0.080293717681088
0.079048300187213
0.077740427050418
0.076357154691614
0.074913916757622
0.073381095709561
0.071783021260974
0.096414949636897
0.096376614454259
0.096298378943113
0.096178801581261
0.096016902745918
0.095812068833862
0.095563733740258
0.095271166078289
0.09493340660763
0.094549324139749
0.09411761307872
0.093636872161877
0.093105532220957
0.092521962074071
0.091884290746454
0.09119074928612
0.090439254614504
0.089628098884416
0.088755055208216
0.087818663915287
0.086815976828316
0.085745750362646
0.084604182062127
0.083392680089672
0.082104769186069
0.080746772524087
0.079303379245121
0.077791527573429
0.076178443223695
0.07448824029779
0.099593624030195
0.099557108322242
0.099482556861401
0.099368535805131
0.099214002378186
0.099018222897871
0.09878046753289
0.098499807923778
0.09817505491683
0.09780481642866
0.097387485235262
0.096921325615913
0.096404383852896
0.095834617604878
0.095209682336386
0.094527322411078
0.09378487679546
0.092980063898737
0.092109963577888
0.091172474820356
0.090163888014836
0.089082281716169
0.087922981863996
0.086686673746783
0.085365751255831
0.083966152185342
0.082470832787377
0.080897312113522
0.079209454745744
0.077433413291
0.10277576293572
0.10274171888169
0.10267218033854
0.10256573969292
0.10242129438749
0.10223798848186
0.10201492804943
0.10175098850785
0.10144474988502
0.10109455586161
0.10069849062954
0.10025447406099
0.099760154147837
0.099213060107601
0.098610348494806
0.097949244314529
0.097226463839436
0.096439098450352
0.095583466525927
0.094656748479872
0.093654379471884
0.092573661178302
0.091408916507006
0.090159971962321
0.0888179197359
0.087388168300349
0.085851689310759
0.084226552366421
0.082472514596876
0.080617790698832
0.10593036233266
0.10589943647669
0.10583622891313
0.10573938195215
0.1056077434291
0.10544033746101
0.10523610940151
0.10499374544566
0.10471160317361
0.10438776990059
0.10402002759474
0.10360595589514
0.10314280271235
0.10262766262763
0.10205718027028
0.10142804244682
0.1007363136812
0.099978422604316
0.099149874055693
0.0982470680582
0.097264501643797
0.096198615184588
0.095042604039548
0.093795309945006
0.092446353496906
0.091000428900633
0.089436301530516
0.087772375915922
0.085963755828752
0.084040421658767
0.10903016426558
0.10900297579148
0.10894736324201
0.10886204455087
0.10874583310358
0.10859764157651
0.10841626410985
0.10820021148641
0.1079476358656
0.10765638601994
0.1073239589554
0.10694761002563
0.10652420031962
0.10605040052981
0.10552234679614
0.10493618765274
0.10428732636439
0.10357151350992
0.1027834073831
0.10191858735499
0.10097054550254
0.099934794809738
0.098803286236759
0.09757376719207
0.096234206635522
0.094788405367325
0.093212666468446
0.091525537757002
0.089676806680958
0.087698611313251
0.11205174448656
0.11202886601877
0.11198202008168
0.11191002667165
0.1118116829198
0.11168580376926
0.11153104788477
0.11134577129642
0.11112794588997
0.11087520909579
0.1105848012964
0.1102536820888
0.10987835387768
0.10945509098788
0.10897954506978
0.10844734638846
0.10785324695426
0.10719232709688
0.10645838801218
0.10564617387594
0.10474812498466
0.10375878748506
0.10266876701063
0.10147464794612
0.10016256312022
0.098735320045339
0.09716635420356
0.095474212998566
0.093602375647706
0.091583267298178
0.11497551908348
0.11495746053305
0.11492042741202
0.11486336881288
0.11478508595232
0.11468431359406
0.1145595956321
0.11440915987363
0.11423083027792
0.11402206926851
0.11377990034129
0.11350102873676
0.11318164091887
0.11281765702339
0.11240428472132
0.11193667410843
0.11140895918382
0.11081558103409
0.11014949957467
0.10940464042347
0.10857237121346
0.10764626203468
0.10661550316174
0.10547546048551
0.10421034354246
0.10282177871782
0.10128037572051
0.099604007473204
0.097729988737463
0.09568880174107
0.11778566310954
0.11777286000222
0.1177465353047
0.11770579400405
0.11764946332811
0.11757621922357
0.1174845165667
0.11737248669186
0.11723784353471
0.11707791737419
0.11688956300682
0.11666928270123
0.11641300247755
0.11611634416893
0.11577413010384
0.11538108625139
0.11493078574977
0.11441708559844
0.11383214857596
0.11316912554184
0.11241832165419
0.11157235411133
0.11061896205615
0.10955225420987
0.10835446310512
0.10702582108582
0.10553414934466
0.10389604885665
0.10204271595997
0.10000059660596
0.12046994365613
0.1204627485484
0.12044786424822
0.1204245731202
0.12039174871969
0.12034803215224
0.12029182027117
0.1202211851393
0.12013377351088
0.12002683082617
0.11989709808016
0.11974093357084
0.1195540695886
0.11933189627586
0.11906892649782
0.11875953281796
0.11839680876855
0.11797409971498
0.11748284676714
0.11691549504694
0.11626133091407
0.11551207885411
0.11465402766792
0.1136800514413
0.11257035236856
0.11132360301495
0.10990471630349
0.10832858538377
0.10652026195166
0.10450111294099
0.12301947921774
0.12301816656725
0.12301528365403
0.12301031464678
0.12300219993761
0.12298956944832
0.12297079443826
0.12294392581137
0.12290658759825
0.1228559900349
0.12278882181734
0.12270136355284
0.12258923315533
0.12244766410244
0.12227095271608
0.1220531974361
0.12178711984599
0.12146563457238
0.12107957378838
0.12062075274755
0.12007752992117
0.11944080848312
0.11869547679866
0.11783327015606
0.1168323804034
0.11568994832279
0.11436776796533
0.11287844008841
0.11114025419135
0.10916847313208
0.1254284267413
0.12543319482464
0.12544271650428
0.1254566901833
0.12547413879382
0.12549371221358
0.12551379525386
0.12553245682045
0.12554733881287
0.12555565996156
0.12555411653914
0.12553897548301
0.12550582752866
0.12544982901692
0.12536517471722
0.12524577212281
0.12508411739971
0.12487277339949
0.12460214240964
0.12426346988163
0.12384436520545
0.12333493406966
0.12271877942028
0.12198652312068
0.12111440768518
0.12009832227724
0.11889711276389
0.11752135800424
0.11588085514329
0.11398201145984
0.12769363085436
0.12770459303261
0.12772676876743
0.12776007046292
0.1278036221847
0.12785610894442
0.12791595796291
0.12798130258596
0.12804986118714
0.12811891779376
0.12818523782888
0.12824512477639
0.1282942168008
0.12832765448565
0.12833965454637
0.12832400253599
0.12827315348847
0.12817936312988
0.12803287754152
0.12782436700693
0.1275410824384
0.12717223526049
0.12670058829696
0.12611534695972
0.12539101281969
0.12452173616864
0.12346365700338
0.12222718119591
0.12071371657404
0.11892071167474
0.12981434393095
0.12983142882932
0.12986623069519
0.1299189197611
0.12998878244582
0.13007454661468
0.1301746495217
0.13028726313289
0.13041021888363
0.13054095574354
0.13067641756104
0.13081303138556
0.13094657295273
0.1310722190103
0.13118431633608
0.13127656163199
0.13134155372623
0.13137121533414
0.13135596734258
0.13128572302123
0.13114799010464
0.13093061427859
0.13061673930292
0.13019310424923
0.12963449022325
0.12893020607339
0.12803540636914
0.12695464261738
0.12558710199936
0.12393151638506
0.13179220771802
0.1318150058758
0.13186184879709
0.13193334319148
0.13202902556061
0.13214774345809
0.13228797976127
0.13244788420217
0.13262531828954
0.13281782691041
0.13302254025564
0.13323608811122
0.13345453363172
0.13367325037979
0.13388689236868
0.13408916697996
0.13427299560294
0.13442996527747
0.13455097318527
0.13462493775963
0.13464027431904
0.13458254438361
0.13443694862951
0.13418524877682
0.13380760887141
0.13328169018363
0.1325738060531
0.1316569245749
0.1304421595457
0.12888730244983
0.13363177493953
0.13365983771243
0.13371753109317
0.13380656779375
0.1339264968046
0.13407639236676
0.13425490377004
0.13446034660201
0.1346908056477
0.13494395052031
0.13521691023769
0.13550626429589
0.13580819618832
0.13611834618015
0.1364319065185
0.13674300935646
0.13704527156401
0.1373303790838
0.13758997637642
0.13781228809665
0.13798698212764
0.13809737638758
0.13813157409045
0.13806489281434
0.13788610227695
0.13755521816383
0.1370678927984
0.13634320033948
0.13534905238005
0.13378624426656
0.057513096126879
0.056602349716601
0.055672949046882
0.054726697586713
0.053765255583142
0.052789874324907
0.051801522570782
0.050801098492298
0.049789559476412
0.048767938173749
0.047737301332219
0.046698717944542
0.045653258831211
0.04460201348552
0.043546104322294
0.042486690103373
0.041424960515344
0.040362126986058
0.039299415647927
0.038238060202426
0.037179297062474
0.036124366491705
0.03507451312517
0.034030997363576
0.032995089536819
0.031967857686927
0.0309500302835
0.029942591912589
0.028946626722593
0.027963172878098
0.026993206684344
0.026037641692321
0.025097313040085
0.024172990696411
0.02326540845947
0.022375265610125
0.021503213126335
0.020649830678498
0.019815612341377
0.019000927423624
0.0182060399124
0.017431106673277
0.016676280546823
0.015941660196267
0.015227438291588
0.014533677390649
0.013860645121809
0.01320822959418
0.012576790486931
0.011965769008279
0.057873018380919
0.056950652626226
0.05600702796675
0.055046209660306
0.054070522081875
0.053080859720976
0.052077654538682
0.051061501069142
0.050033297477151
0.048994129617154
0.047945131231521
0.046887421912004
0.045822112754791
0.044750333124702
0.043673248275786
0.042592062573769
0.041508013651203
0.040422367168633
0.039336410181145
0.038251448344876
0.037168800541284
0.036089781255694
0.035015677593828
0.033947691497615
0.03288690966024
0.031834563047016
0.030792208331218
0.029761068850647
0.028742245766135
0.027736824495584
0.026745803864365
0.025770086054111
0.024810547632557
0.023868053788437
0.022943416676988
0.022037365367729
0.021150556772691
0.020283576449209
0.019436945792246
0.018611099542878
0.017806413023119
0.01702316550757
0.016261623846919
0.015521928080965
0.014804293798086
0.014108713053298
0.01343543118843
0.012784251812377
0.012155620976185
0.011549104061915
0.058545396007044
0.057589547750169
0.056607018868254
0.055606800737562
0.054592909830019
0.053565849747473
0.052525243319691
0.051471255242796
0.050404755582884
0.049326964299053
0.048239137530776
0.047142460341867
0.046038074092655
0.044927132447961
0.043810834143918
0.042690428426063
0.041567207001922
0.040442490908755
0.039317622753677
0.03819395674547
0.037072850765693
0.035955662514362
0.034843738826536
0.033738446978041
0.032641203232386
0.031553401055927
0.030476326843509
0.029411246394734
0.028359280459512
0.027321453876466
0.026298829269875
0.025292490052943
0.024303439202027
0.023332568860571
0.022380700415398
0.021448597881205
0.020536961086462
0.01964640008401
0.018777448861982
0.017930546428929
0.017106074457801
0.01630430946541
0.015525499757086
0.014769763842864
0.01403725358834
0.013327942063144
0.01264201767676
0.011979512772019
0.01134151798134
0.01073023225868
0.059494098488201
0.058485086224538
0.057441878973254
0.056381145664076
0.055309388010843
0.054226394327946
0.053130493077672
0.052021176376983
0.050899263404666
0.049766161517621
0.048623286260088
0.04747188884754
0.046313119213004
0.045148125997732
0.043978110532172
0.042804335608382
0.041628112574683
0.040450786781244
0.039273730009176
0.03809833989992
0.036926041655436
0.035758284219416
0.034596534688205
0.033442261346163
0.032296913289812
0.031161903229698
0.030038526111333
0.02892803953276
0.027831692853338
0.026750727299036
0.025686330140725
0.024639593834594
0.023611523333447
0.022603052473272
0.021615051392282
0.020648309079571
0.019703538523861
0.01878136176679
0.017882338237096
0.017006927194425
0.016155546624659
0.015328484347951
0.014526037911218
0.013748321368392
0.012995583396788
0.012267800722925
0.011565414620381
0.010888604541236
0.010239373970297
0.0096215226937773
0.060697824766788
0.059618568255981
0.058495262525339
0.057355089139188
0.056207834607757
0.055052209244827
0.053884735460531
0.052703993326914
0.051510747042088
0.05030666100173
0.049093355301516
0.04787215394624
0.046644204911298
0.045410642230656
0.044172667865565
0.04293156404316
0.04168867517008
0.040445388521158
0.039203125392922
0.037963342075167
0.036727527391025
0.035497190883957
0.034273842519351
0.033058962426687
0.031853983661338
0.030660306716486
0.029479349652878
0.028312495161406
0.027161098188694
0.026026452286679
0.024909761362764
0.023812146758802
0.022734664507059
0.021678295752109
0.02064394940697
0.019632451306922
0.018644561369139
0.017680942645025
0.016742198267018
0.015828808493126
0.014941226673933
0.014079737785179
0.013244680593385
0.012436130240726
0.011654399641242
0.010899371868837
0.010171701485914
0.009471709373063
0.0088029712430675
0.0081729260818279
0.062142004204253
0.060976824794766
0.059755116408854
0.058517652663641
0.057278348841498
0.0560344337637
0.054780074118959
0.053512693310021
0.052233015175287
0.050943053922983
0.049644696125057
0.048339353745208
0.047028163927649
0.045712233546654
0.044392756404349
0.043071028447123
0.041748421491214
0.040426353672415
0.0391062768233
0.037789675051495
0.036478063462662
0.035172979395937
0.033875963571429
0.032588557454156
0.031312304398349
0.030048732442387
0.028799357123531
0.027565653174808
0.026349009424364
0.025150741507708
0.023972131864935
0.022814402603117
0.021678679745396
0.020565989868786
0.01947729669673
0.018413483516028
0.017375363469131
0.016363629424134
0.015378918060491
0.014421717514707
0.013492514273544
0.012591570676323
0.01171926606028
0.010875600879303
0.010060985966899
0.0092751845364837
0.0085192252953992
0.0077935077302862
0.0071034434816174
0.0064595275417384
0.063818946158926
0.062553232990868
0.061215483968708
0.059863483851258
0.058516190089989
0.057168897031348
0.055812812493053
0.054443943333745
0.05306300749013
0.051672494562605
0.050274646803292
0.048870997113343
0.047462674352595
0.046050751071158
0.044636402439105
0.043220925109221
0.041805702783932
0.040392170771299
0.038981802682987
0.037576114971616
0.036176671685492
0.034785077947946
0.033402965076718
0.032031977302851
0.030673762820418
0.029329944407882
0.028002068346619
0.0266916436495
0.025400130063686
0.024128934824478
0.022879408183058
0.021652815036356
0.020450331410561
0.019273039808361
0.018121954321989
0.016997987538058
0.015901983203002
0.014834651138394
0.013796663159142
0.012788506742123
0.011810705795614
0.010863483713214
0.0099472811954157
0.0090620020246892
0.0082082114217155
0.0073854962592462
0.0065953960904998
0.0058383433061304
0.0051223575279789
0.0044622291590992
0.06572432748512
0.064344146837726
0.062872985164101
0.061389621151331
0.059919068807496
0.058454046378693
0.056982041893382
0.055497374223026
0.054000827778308
0.052495496336682
0.050984047250967
0.049468156570845
0.047948951087828
0.046427476024996
0.044904899985408
0.043382535029378
0.041861791517332
0.040344135230792
0.038831074199189
0.037324169410598
0.035825043822682
0.034335374186614
0.032856867615447
0.031391235184078
0.029940172989233
0.028505346189138
0.027088406658675
0.025690965787507
0.024314581034915
0.022960733617227
0.021630834563002
0.020326219172025
0.01904814720897
0.017797772396323
0.016576170938799
0.015384303397805
0.014223076668879
0.013093241677463
0.011995536340858
0.01093045516392
0.0098985946554132
0.0089001292067325
0.0079356182501151
0.0070048202516917
0.0061085623835023
0.0052461335910472
0.0044198294364313
0.0036298831364278
0.0028875192282431
0.0022116146635638
0.067858189236899
0.066350557063253
0.064728743842141
0.063097154065294
0.061488342854829
0.05989169137253
0.058289891914289
0.056675252207035
0.055048808814755
0.053414440419116
0.051775291625635
0.050133188752134
0.04848926469511
0.046844547507182
0.045200212293307
0.043557604924109
0.041918182969107
0.040283460615709
0.038654992635702
0.037034389191692
0.035423328969269
0.033823551680975
0.032236834511181
0.030664967342242
0.029109742604941
0.027572938431048
0.026056308984599
0.024561570065085
0.023090383671541
0.021644331078828
0.020224919190782
0.018833571116539
0.01747163069557
0.016140322361793
0.014840794787313
0.013574064536722
0.012341108288976
0.011142710225253
0.0099796760840753
0.0088524911847966
0.0077618359604698
0.006707805673597
0.005691109239451
0.0047112953910467
0.0037695314045023
0.0028646648401685
0.0019999501608653
0.001175152513068
0.00040545979107969
-0.00028587091294457
0.070222407837048
0.068574544381397
0.066784952831857
0.064988533310706
0.063226765795767
0.061484816456001
0.059739446232047
0.057980631065684
0.056209888320512
0.054432104977618
0.052650975464981
0.050868490428775
0.049085801921495
0.047303936283872
0.045524090277692
0.043747658095168
0.041976157899505
0.040211164094472
0.038454288857649
0.036707203024195
0.034971655997259
0.033249471486559
0.031542524761504
0.02985271684401
0.028181961420502
0.026532157622797
0.024905177769808
0.023302854688906
0.021726963766368
0.020179195779011
0.018661166500424
0.017174398764131
0.015720331904319
0.014300272638268
0.012915458309214
0.011566973989526
0.010255884294963
0.008983016431368
0.0077492699048278
0.0065551266096167
0.0054013883947108
0.0042880603531532
0.0032160584039286
0.0021846739464761
0.0011955241493762
0.00024689122233978
-0.00065674909566034
-0.0015163661928509
-0.0023119837198875
-0.0030160683461732
0.072821875633024
0.071019723620283
0.069044697179443
0.067067438651822
0.065138768817894
0.063238194393911
0.06133560490726
0.059418513191474
0.057489112172858
0.055553491153438
0.053615987494591
0.051678774640265
0.049743029082108
0.047809795426638
0.045880322537578
0.043956084776494
0.042038688664237
0.040129791275172
0.038231081989176
0.036344312195177
0.034471324397416
0.032614052380868
0.030774495277001
0.028954686396243
0.027156674032523
0.025382487268369
0.023634143762492
0.021913621885731
0.020222841068552
0.018563624518054
0.01693771372946
0.015346751594756
0.01379230094669
0.012275778308816
0.010798536848567
0.0093617510925472
0.007966600448019
0.0066139682129658
0.0053048774493059
0.0040398021389856
0.0028197069474013
0.0016444698314231
0.00051528899570074
-0.00056889989612173
-0.0016058716663139
-0.0025981333608747
-0.0035396324603649
-0.0044325421816528
-0.0052511104890667
-0.0059639738907459
0.075661279447594
0.073691119182443
0.071512788870185
0.069339053172028
0.067229930034926
0.065157619320964
0.063084297227676
0.060994874867325
0.058892387463031
0.056784352642604
0.054675876031551
0.052569333261144
0.050465920444123
0.048366720271562
0.046273074111791
0.04418658038343
0.042108975347201
0.040042037537458
0.037987567304038
0.035947424876504
0.033923570109543
0.031918066580167
0.029933057998927
0.027970732143358
0.026033299705069
0.024122965707903
0.022241924929572
0.020392325528651
0.018576259091804
0.016795721789192
0.01505261948856
0.013348742646513
0.011685802120907
0.010065349246782
0.0084888779973131
0.0069576719997911
0.0054730491297504
0.0040359631718781
0.0026475917471599
0.0013084000097321
1.9565052614397e-05
-0.0012192001898283
-0.0024063170631347
-0.0035433229760396
-0.0046271745101994
-0.0056614561421113
-0.0066380765539084
-0.0075610508415178
-0.0083976804349499
-0.0091136450872828
0.078742603565686
0.076593006897978
0.074194567307734
0.071808943411167
0.069506047783763
0.067249248305928
0.064991920298071
0.062716164250954
0.060426098479037
0.058130947912666
0.055836719092214
0.053546002035524
0.051260007808951
0.048979885259026
0.046707116957607
0.044443474808234
0.042190868435856
0.039951237849148
0.037726534578655
0.035518767580715
0.033330052417787
0.031162621594925
0.029018801442537
0.026900973058116
0.024811548170606
0.022752932788333
0.020727536845604
0.018737723716415
0.016785801276739
0.014873968580226
0.013004322943377
0.011178836109978
0.0093994047088096
0.007667748836897
0.0059855360650493
0.0043541901490297
0.0027752013610378
0.0012496211365771
-0.00022118031960209
-0.0016367366254338
-0.0029956028272458
-0.0042982656259845
-0.0055426550834784
-0.006730917354676
-0.0078589452587686
-0.0089317587641137
-0.0099386743620491
-0.010886382563884
-0.011733878258306
-0.012445336242602
0.082068048797242
0.079729107764164
0.077094377769602
0.074481978381799
0.071972657572965
0.069519188702159
0.067064924208119
0.064588998182634
0.062096930174825
0.059599954110278
0.057105097854987
0.054615169118747
0.05213139341163
0.049655028183624
0.047187765313079
0.044731615153707
0.042288715176294
0.039861215076049
0.037451262435024
0.03506105954663
0.032692924415713
0.030349306165026
0.028032762389763
0.025745916741492
0.02349143139932
0.021271968611024
0.019090200555757
0.016948748761157
0.014850172174652
0.01279691445868
0.010791316467358
0.0088355785572163
0.0069318232462586
0.0050819747358646
0.0032879146543425
0.0015512434862872
-0.00012633534632058
-0.0017436410919824
-0.0032990697242915
-0.0047921367162181
-0.0062210719159313
-0.0075865900946629
-0.0088860107088874
-0.010122234276199
-0.011289813337202
-0.012395618525222
-0.013425744308996
-0.014390592129777
-0.015239305846115
-0.015936759023775
0.085637170838776
0.08310084294788
0.080214246304027
0.077361679689841
0.07463479777816
0.071973327628568
0.069309550455967
0.066619790776745
0.063911429889107
0.061198011368775
0.058487656879667
0.055783364883228
0.053086379964596
0.050398134026792
0.047720616331989
0.045056155492455
0.042407183194569
0.03977611724799
0.037165357805057
0.034577356829775
0.0320146916848
0.029480086686447
0.026976389225153
0.024506523111327
0.022073458118371
0.019680165850608
0.017329637325382
0.01502480675463
0.012768544884367
0.010563601589778
0.0084126155625766
0.0063180651140252
0.0042823484371603
0.0023076408165779
0.00039608786438691
-0.0014504917358473
-0.0032301315755798
-0.0049414881414043
-0.0065826740037
-0.0081531665004337
-0.0096508115640109
-0.011076570911782
-0.012427041652383
-0.013706011157984
-0.014906426859052
-0.016037400104704
-0.017081229907026
-0.018052991392558
-0.018890638806263
-0.01956235532087
0.089452387171883
0.0867104553236
0.083552376050816
0.080447898419229
0.077494894958316
0.074615862287948
0.071730943032734
0.068814191807763
0.06587562293188
0.062931460078409
0.059990931277322
0.057057160968992
0.054131427993485
0.051215430629892
0.04831156848579
0.045422586340642
0.042551292048136
0.039700447100346
0.03687277613667
0.034071051444289
0.031298180386417
0.02855723247407
0.025851413939666
0.02318401688961
0.020558382978196
0.017977861995831
0.015445835706319
0.012965625212571
0.010540478296078
0.0081735149014347
0.0058677327866025
0.0036259555464192
0.0014509159864759
-0.00065489767118788
-0.0026890235996109
-0.0046493717054008
-0.0065336610963799
-0.0083403419034455
-0.010067190068484
-0.011713619067488
-0.013277033015946
-0.014758648256971
-0.016154251908429
-0.017468619907844
-0.018692915937515
-0.01983879541044
-0.020884549571515
-0.02185040445852
-0.022663262197774
-0.023294001821813
0.093501919082097
0.09054806033722
0.087109528708329
0.083743556069858
0.080555754277333
0.077450077196209
0.074333094908406
0.071176805554234
0.067994649004512
0.064805902916562
0.061620858970806
0.058442673183215
0.055272696635302
0.052113020700743
0.048966578331312
0.045836624360512
0.042726423844105
0.039639165118009
0.036577987583607
0.033546077049609
0.03054676251437
0.027583546931646
0.024660080194854
0.021780107126703
0.018947427663803
0.016165854768193
0.013439239690302
0.010771372077454
0.0081659585147287
0.0056265755346612
0.0031566525034436
0.00075943715206403
-0.0015619422503175
-0.0038046018481277
-0.0059657172361459
-0.0080428429156843
-0.010033353066221
-0.011935408977836
-0.01374642817098
-0.015465689621892
-0.017090127589433
-0.018621178602152
-0.020053753766721
-0.021393698792205
-0.022630194071767
-0.0237777919835
-0.024810356823849
-0.025754057694263
-0.026526220820149
-0.027103761347575
0.09777717810956
0.094608561348086
0.090879655009902
0.08724573901841
0.083817608175848
0.08047755603772
0.07711836391776
0.073710908254949
0.070272726561643
0.066826315276063
0.063382913299862
0.059945622804039
0.056515955465476
0.053096584535736
0.04969115056213
0.046303539300978
0.042937563683662
0.039596926780468
0.036285275582609
0.033006307278193
0.029763872487229
0.026562006934437
0.023404903630462
0.020296861710321
0.017242242710736
0.014245422566183
0.011310819730903
0.008442789725543
0.0056455944771954
0.0029233689218335
0.00028006542192447