/*--------------------------------*- C++ -*----------------------------------*\
| =========                 |                                                 |
| \\      /  F ield         | OpenFOAM: The Open Source CFD Toolbox           |
|  \\    /   O peration     | Version:  2112                                  |
|   \\  /    A nd           | Website:  www.openfoam.com                      |
|    \\/     M anipulation  |                                                 |
\*---------------------------------------------------------------------------*/
FoamFile
{
    version     2.0;
    format      ascii;
    arch        "LSB;label=32;scalar=64";
    class       volScalarField;
    location    "12.2";
    object      p;
}
// * * * * * * * * * * * * * * * * * * * * * * * * * * * * * * * * * * * * * //

dimensions      [0 2 -2 0 0 0 0];

internalField   nonuniform List<scalar> 
22000
(
0.02616056712285
0.026138807374617
0.026094004834388
0.026024970390171
0.025931173009909
0.025812648326643
0.025669683029242
0.025502573386428
0.025311543584622
0.025096771352966
0.024858433540735
0.024596735015418
0.024311913609434
0.024004243028565
0.023674023298521
0.023321587074885
0.022947285659935
0.022551510968722
0.022134666951829
0.021697216790775
0.02123961468921
0.020762411062294
0.020266096322899
0.019751335777238
0.019218618124668
0.018668784079948
0.018102235472763
0.017520116137534
0.016922526000761
0.016311164752829
0.026566967599712
0.026544032120488
0.026497749507307
0.026427039935482
0.026331339787567
0.026210613702363
0.026065093999292
0.02589504788432
0.025700685433688
0.025482175060439
0.02523968194593
0.024973396824036
0.024683540874857
0.024370373163807
0.024034177857502
0.023675276267043
0.023294004122802
0.022890746023387
0.022465887931425
0.02201989278553
0.021553190560509
0.021066346205651
0.020559809586789
0.020034290342494
0.019490198329954
0.018928472956119
0.018349345988279
0.017754152447828
0.017142583889986
0.016516658139572
0.027312446341844
0.027288686707922
0.027240828012118
0.027167852060705
0.02706923138951
0.026944927014827
0.02679514532273
0.0266201245706
0.026420049556812
0.026195066513772
0.025945317214305
0.025670968562097
0.025372214594409
0.025049288895819
0.024702445792083
0.024331982998533
0.02393820453866
0.023521477806238
0.02308215326295
0.022620690527965
0.022137473257116
0.021633092186432
0.021107922238278
0.020562759983611
0.019997873046312
0.019414409783961
0.018812301821859
0.018193325217238
0.017556437815415
0.016904435594036
0.028348952995129
0.028324314869637
0.028274686325365
0.028199024490695
0.028096793400213
0.027967948827635
0.027812683182294
0.027631211273977
0.027423687228094
0.027190223225945
0.02693092310829
0.026645915668073
0.026335352562222
0.025999427355619
0.025638347447324
0.025252371939341
0.02484175375999
0.024406829575055
0.023947892011936
0.023465389163653
0.022959630497472
0.022431237369566
0.021880468705439
0.021308239040126
0.020714600162502
0.020100989367652
0.019466883693118
0.018814663236594
0.018142178252452
0.017453289856958
0.029634759770638
0.029609153241706
0.02955756431708
0.02947890975934
0.029372628418696
0.029238659747219
0.029077174633752
0.028888356267928
0.028672316722905
0.028429119853151
0.028158814559798
0.027861473525547
0.027537186135053
0.027186086299322
0.026808312006098
0.026404063044386
0.025973515759789
0.025516956210546
0.025034590031111
0.024526838419578
0.023993900786116
0.023436425200715
0.022854504209571
0.022249190806616
0.02162023733905
0.020969441652537
0.020295671243032
0.019602082715769
0.018885085252649
0.018149953158651
0.031132987293754
0.03110639306268
0.031052801057486
0.03097108532904
0.030860653243701
0.030721417746785
0.030553515181985
0.030357082553631
0.030132173751846
0.029878786636717
0.029596895081821
0.029286494176559
0.028947586942646
0.028580223153459
0.028184443532546
0.02776036213888
0.027308047077582
0.026827707336767
0.026319425217955
0.02578357204673
0.025220193339724
0.024629951550867
0.02401271376942
0.023369684948079
0.02270022868697
0.022006568494304
0.021286804763549
0.020545036366191
0.019775893314355
0.018986379319478
0.032810333691436
0.032782818903661
0.03272735480532
0.032642771909405
0.032528440638438
0.03238423738003
0.032210249866335
0.032006552388702
0.03177312214801
0.031509870900983
0.031216674836062
0.030893427025982
0.030540016511484
0.030156380296846
0.029742429195484
0.029298159705324
0.028823493955779
0.028318530693743
0.02778318517211
0.027217747963392
0.026622058130816
0.025996771487566
0.025341461694014
0.024657487808648
0.023943724242424
0.02320287291231
0.022432097970252
0.021636585481479
0.020808834869523
0.019957854723626
0.034636058698003
0.034607774639595
0.034550737830751
0.034463736632925
0.034346099889176
0.034197657206627
0.034018433036522
0.03380842149996
0.033567503411556
0.033295482845023
0.032992113819814
0.032657160688399
0.032290368085696
0.031891528204376
0.031460385234392
0.030996781482363
0.030500449814497
0.029971339146161
0.029409146722222
0.028814043144292
0.028185599604893
0.027524433481653
0.026829745778124
0.026103040255314
0.025342591177956
0.024551614509817
0.023726158130146
0.022872618415358
0.021981003841677
0.021062559627845
0.036581356117397
0.036552532122504
0.036494379898714
0.036405649160078
0.036285623362587
0.036134075125758
0.035950950659524
0.035736146234554
0.035489426403299
0.035210465641243
0.034898870682015
0.034554249364866
0.034176169939861
0.033764245556928
0.033318014304819
0.032837124021738
0.032321070676361
0.031769608230067
0.031182158703037
0.030558725641304
0.029898542352138
0.02920214538718
0.028468274204165
0.027698551737723
0.026890529587049
0.026047956309816
0.025165576400177
0.02425109379399
0.02329166242719
0.022300934315061
0.038619033328819
0.038589969035856
0.038531300723768
0.038441745100269
0.03832053741563
0.038167383560139
0.037982137173629
0.037764579861264
0.037514341082134
0.037230944750001
0.036913826011794
0.036562408804328
0.036176053141424
0.035754158320081
0.035296015904777
0.034801036937201
0.034268430390915
0.03369770607831
0.033087949272185
0.032438942582514
0.031749505551907
0.031020040254421
0.030248727518129
0.029437267378973
0.028582357851304
0.027688269258159
0.026748246050158
0.025771364816649
0.0247415632452
0.023675009989873
0.040723407950817
0.040694463160095
0.040636000005886
0.04054670809659
0.040425772493917
0.040272824324693
0.040087612530687
0.039869789580412
0.039618833442555
0.03933409876001
0.039014827130471
0.038660233139014
0.038269438794645
0.037841595915425
0.037375710511658
0.036870914141896
0.036326078817819
0.035740418162394
0.035112617833473
0.034442179193253
0.033727430120806
0.03296857299205
0.032163134628143
0.031312827638032
0.030413371366944
0.029469509855213
0.028472794335757
0.027433660364897
0.026332462256233
0.02518788688274
0.042870347678002
0.042841927627104
0.042784487916715
0.042696694507696
0.042577679785445
0.042426994287649
0.042244273794167
0.042029031059979
0.041780580199186
0.041498091628893
0.041180595528149
0.040827075216304
0.040436389166593
0.040007410974187
0.039538826267837
0.03902944565264
0.038477758007294
0.037882626712909
0.037242278451377
0.036555864739756
0.035821150210912
0.035038049286708
0.034203360224083
0.03331868944637
0.032378722756685
0.031388516321913
0.030337881292731
0.02923842573708
0.02806664872117
0.026843504454831
0.045037414702012
0.045009953029563
0.044954413733939
0.044869447434098
0.044754134138834
0.044607939596449
0.044430380550726
0.044220823118442
0.043978409755695
0.043702116711729
0.043390750673023
0.043043047343212
0.04265758246612
0.042232925758783
0.041767414214695
0.041259499493102
0.040707248366169
0.040109119074998
0.039462830062183
0.038767102433332
0.038019086721517
0.037218282752037
0.036360734155703
0.03544773200903
0.034472965030208
0.033441497613395
0.032341515640539
0.0311854594551
0.029946020811758
0.02864563363612
0.047204019610065
0.047177963629769
0.047125225952713
0.04704445673458
0.046934688912639
0.046795302462875
0.046625692483297
0.046425076153668
0.046192421640666
0.045926506456652
0.045625907328646
0.045289103229322
0.044914375477614
0.044499972677351
0.044043862610072
0.043544107885772
0.042998321759525
0.04240450854601
0.041759835291997
0.041062518956292
0.040309038399311
0.039498378511495
0.038625745709509
0.03769198905992
0.036689700373499
0.035623726613286
0.034480687206227
0.033273240502813
0.031971372698931
0.030597879540621
0.049351562901239
0.049327357182815
0.049278317323235
0.049203111442252
0.049100734918105
0.048970484404129
0.048811634165273
0.04862325454493
0.04840414260417
0.048152880215686
0.047867815582372
0.047547169631012
0.047188924764432
0.046791001372965
0.046350985913036
0.045866534970386
0.045334782292435
0.044753247083256
0.044118498826657
0.043428202976814
0.042678091674285
0.041866572549963
0.040987898788372
0.040042405635542
0.039021409635071
0.037929487852014
0.036751395956905
0.03550006991497
0.034142085495802
0.0327007997392
0.051463564233354
0.051441636350514
0.051397158456733
0.051328836683133
0.051235640703531
0.051116789956932
0.050971443035048
0.050798530492204
0.050596687235832
0.050364309235809
0.05009952548151
0.049800307200235
0.04946434361686
0.049089229401637
0.048672168055049
0.048210404875994
0.047700581042034
0.047139711648322
0.046523736310697
0.045849731599467
0.045112622697975
0.044310181746229
0.043435609445114
0.042488651285186
0.041459199669584
0.040351468149272
0.039148112678286
0.037862218327817
0.036456455395401
0.034954354626346
0.053525747913695
0.053506496253591
0.053467386982496
0.053407185737337
0.053324850732698
0.053219533074874
0.05309028482376
0.052935908764022
0.052754892261812
0.052545461687499
0.05230554380457
0.052032877017849
0.051724873149226
0.051378815538158
0.050991535204902
0.050559873025191
0.050079978034611
0.049548357217708
0.048960303595519
0.048312283394358
0.047598370516294
0.046815656392669
0.045956202378203
0.04501909158253
0.043992646559553
0.042880636775351
0.041663386251526
0.04035402237851
0.038910787059909
0.037356858366882
0.055526072427266
0.055509854918069
0.055476842068443
0.055425881380302
0.055355934713428
0.055266096049975
0.055155323874943
0.05502230997626
0.054865414399094
0.054682716091072
0.05447196349519
0.054230686887529
0.053956045957251
0.053645037226605
0.053294142544836
0.052899818957135
0.052457738428241
0.051963910781112
0.051412983348007
0.050800808759631
0.050120585730297
0.049368700807491
0.048536006909202
0.047620868859265
0.046609883476786
0.045506293584119
0.044287834823197
0.042967644137799
0.041499050661847
0.039904374360912
0.057454702628303
0.057441830283268
0.05741554620878
0.057374802797126
0.05731858295443
0.05724593714085
0.057155746222044
0.057046610845578
0.056916788046866
0.056764236428526
0.056586556979092
0.05638110363574
0.056144818659621
0.055874444873527
0.055566150464244
0.055216039955342
0.054819340765759
0.05437158976362
0.053866810103758
0.053300252585965
0.052664241781031
0.05195445562389
0.051160503458167
0.050280012921029
0.049297723597073
0.048216274034128
0.047010443104853
0.045693285822771
0.044212722630994
0.042590101638291
0.059303922012202
0.059294658688639
0.059275637405977
0.059245932467856
0.059204563597276
0.05915055658748
0.059082737583918
0.058999639745883
0.058899443803669
0.058780016502095
0.058638846901824
0.058473148716702
0.058279690742751
0.058055001766037
0.057794986884641
0.05749543665054
0.057151187629639
0.056757334233019
0.056307328288216
0.055795832641173
0.055214339719023
0.054557808854189
0.053814620105578
0.052981660189965
0.052041777405687
0.050997061725202
0.04981894288211
0.048520177769608
0.047042021753158
0.045404814893587
0.061067989819369
0.061062552793187
0.061051233955706
0.061033240347166
0.061007639856936
0.060973447579598
0.060929457331191
0.060874163872166
0.060805707434958
0.060721897979968
0.060620155052806
0.060497589082823
0.060350844224348
0.060176272503051
0.059969580330105
0.059726282259447
0.059440909625524
0.059108138773654
0.058720959253246
0.058273435652969
0.057756363095741
0.05716390884479
0.056483362987804
0.05571071732876
0.054827069233149
0.053833960936159
0.052699736216077
0.051436953416612
0.049978408967709
0.048340179114043
0.062742978262256
0.062741516782382
0.062738220883792
0.062732443582041
0.062723330362778
0.062709898825327
0.062690910424031
0.062664831958654
0.062629793511558
0.062583588791801
0.06252362487081
0.062446958883463
0.06235017514595
0.062229487832868
0.062080480222458
0.061898410742283
0.061677617626782
0.061412348306843
0.061095319722992
0.060719911537947
0.060276540286577
0.059758337612567
0.059151995892876
0.05845207351188
0.057638447312783
0.05671129656318
0.05563656443787
0.054427797790846
0.053009835420014
0.051394262386851
0.06432665436599
0.064329171060559
0.064334007549166
0.0643406868478
0.064348477555733
0.064356427396293
0.064363275052812
0.06436746744614
0.064367131638284
0.064360057967431
0.064343672139016
0.064315008806247
0.064270658124088
0.064206750850669
0.064118853879438
0.064001999574246
0.063850472131432
0.063658026255179
0.06341734922007
0.063120890989463
0.062759228090123
0.062323813815199
0.061801942497455
0.061185248878832
0.060454684774055
0.059605535777282
0.058604067058387
0.057459207311812
0.05609492493046
0.0545272951394
0.065818555097078
0.065824777954975
0.065837419879134
0.065856381395796
0.065881052614122
0.065910418975025
0.065943228251276
0.065977953481285
0.06601276885037
0.066045528942732
0.066073721007372
0.06609435468009
0.066104008433274
0.066098707354464
0.066074019814315
0.066024779394063
0.06594534077154
0.065828970400041
0.065668550880065
0.065455360657114
0.065180651743087
0.064833267918874
0.064402674212712
0.063874838222823
0.0632367657851
0.062471253021695
0.061557150630638
0.060473820685158
0.059162089846994
0.057607507595763
0.067220458870238
0.067230100523512
0.067249765200431
0.067280390360136
0.067321527430411
0.067371749450585
0.0674299850164
0.067494597220359
0.067563778380965
0.067635604218502
0.067707852471594
0.067777737519745
0.067841949064901
0.067896429698293
0.06793663013396
0.067957065931678
0.067952062034632
0.06791450497897
0.067837659167368
0.067711945323728
0.067529614618957
0.067276916828118
0.066946141411477
0.066516309236909
0.06598354120412
0.065313077444452
0.064512424270764
0.063512428006544
0.062312912228329
0.060684261176978
0.015724096239224
0.015164146382418
0.014593971766022
0.014014676596044
0.013427209675884
0.012832326961045
0.01223066959837
0.011622862455263
0.011009574522857
0.01039152389141
0.0097694535686851
0.0091441129520135
0.0085162544114956
0.0078866328856
0.007256004013978
0.0066251225837164
0.0059947416988453
0.005365610862131
0.0047384732198427
0.0041140626171132
0.0034931019889377
0.0028763039006719
0.0022643733519861
0.0016580156511459
0.0010579387064729
0.0004647664574505
-0.00012112142890155
-0.00069918974020484
-0.0012688418198241
-0.0018295125598134
-0.0023807001825166
-0.0029219607406311
-0.0034528986409738
-0.0039731566311406
-0.0044824147390305
-0.0049803843699806
-0.0054668183138356
-0.0059415010637433
-0.0064042667619286
-0.0068549726914764
-0.0072935372695328
-0.0077198822483226
-0.0081340170772459
-0.008535911254676
-0.0089256820829651
-0.009303315562992
-0.0096690837737727
-0.010022942339077
-0.010365445980202
-0.010696554562125
0.015918262758397
0.015350141716089
0.014770561589119
0.014181668327673
0.013584805717897
0.012980643712739
0.012369560281417
0.011751970383032
0.011128458371147
0.010499739075275
0.0098665697143428
0.0092297070164436
0.0085899094991469
0.0079479441116468
0.0073045851455626
0.0066606136303611
0.0060168188138823
0.0053739958295556
0.0047329404562949
0.0040944440520608
0.0034592899620966
0.0028282472084769
0.0022020597472567
0.0015814268334782
0.00096698654330864
0.00035940399306268
-0.00024043302603998
-0.00083185589468343
-0.0014143091925662
-0.001987265478125
-0.0025502101055697
-0.003102651042052
-0.0036441326909443
-0.0041742368326122
-0.0046925921762275
-0.0051988660994521
-0.0056927790382151
-0.0061740825210439
-0.0066425914437858
-0.0070981355074592
-0.0075406310080576
-0.0079699709472608
-0.0083861866416806
-0.0087892021595861
-0.0091791961865782
-0.0095560509617565
-0.009920160717781
-0.010271186935143
-0.010609816982185
-0.010934942444638
0.016282715167559
0.015692549487669
0.015088097770999
0.014473894782559
0.013852348012447
0.013224128058714
0.012589198814583
0.011947644907022
0.011299960369285
0.010646922514137
0.0099893721608181
0.0093281193485743
0.0086639574633871
0.0079976846032611
0.0073301057379033
0.0066620354755502
0.0059943032983095
0.0053277498639745
0.0046632172419887
0.0040015415051482
0.0033435496896908
0.0026900577869952
0.0020418694471719
0.0013997803790845
0.00076458831324343
0.00013707923217698
-0.0004820618027675
-0.001092156851086
-0.0016925622467578
-0.0022826733117521
-0.0028619227913481
-0.0034297774662205
-0.003985747197492
-0.0045293825237994
-0.0050602883065823
-0.0055781079022643
-0.0060825480583237
-0.0065733409693702
-0.0070503007139698
-0.0075132374201508
-0.0079620857109117
-0.0083967084037116
-0.0088171900077641
-0.0092233887735077
-0.009615605882384
-0.0099935568259174
-0.010357889181234
-0.010707776635463
-0.011044250305215
-0.011364312678353
0.016796918678124
0.016171832447637
0.015528568254335
0.01487546656683
0.014216517589282
0.013552308706531
0.012882126061642
0.012205541141018
0.011522909027592
0.010835093944571
0.010143046949504
0.0094476338605595
0.0087496701119836
0.0080499687080683
0.007349348766638
0.0066486425599561
0.0059487065132908
0.0052504165530046
0.0045546534026035
0.003862293549887
0.0031742083359421
0.0024912630032613
0.0018143125112643
0.0011441945894247
0.00048172016103997
-0.00017233195043067
-0.00081719172572338
-0.0014521302022248
-0.0020764565320972
-0.0026895156338741
-0.0032906940185161
-0.003879418276668
-0.0044551650998483
-0.0050174521633908
-0.0055658562946387
-0.0060999892152007
-0.0066195363170105
-0.0071241987197059
-0.0076137810636466
-0.0080880577488767
-0.0085469748583494
-0.0089903415927655
-0.009418296354755
-0.0098305915769874
-0.010227669638278
-0.010608990977324
-0.010975501750151
-0.011325628382901
-0.011660735399086
-0.011974900408438
0.017449292840888
0.016778045649323
0.016083538452401
0.015379378573959
0.014671643238747
0.013960712136955
0.013244905144442
0.012523096161539
0.011795463212972
0.011062994727904
0.01032678900352
0.009587778158732
0.0088467947636576
0.0081046595505484
0.0073622001819014
0.0066202631705001
0.0058797308534394
0.00514151504303
0.0044065353805702
0.0036757068775639
0.0029499399030238
0.0022301399000915
0.0015172022023299
0.00081200633828747
0.0001154121024343
-0.00057174372431555
-0.0012486511103144
-0.0019145304381663
-0.0025686391484262
-0.0032102725739517
-0.0038387714920244
-0.0044535182200021
-0.0050539485216973
-0.0056395383275675
-0.006209827991604
-0.0067643886259629
-0.0073028756217029
-0.0078249488509164
-0.008330394674429
-0.0088189396329049
-0.0092905339448465
-0.0097449155981287
-0.010182274083077
-0.010602224455398
-0.011005361000155
-0.011390823879404
-0.011759896582865
-0.012110086710588
-0.012443121365315
-0.012749401036587
0.018232962520957
0.017505153155886
0.016747582356009
0.015980754922066
0.015213383875225
0.014445495294648
0.013674132383331
0.012897287467343
0.012114936865901
0.011328244891279
0.010538504915666
0.0097467317360919
0.0089537727989475
0.0081604524831684
0.0073676054725345
0.0065760925302989
0.0057868236043657
0.0050007488932425
0.004218828706621
0.0034420174843767
0.0026712658963026
0.0019075227651644
0.0011517301343125
0.00040481740354784
-0.0003323031951896
-0.0010587436589037
-0.0017736451266857
-0.0024761774947416
-0.0031655469579363
-0.0038409973877226
-0.0045018191977772
-0.0051473443898023
-0.0057769610451827
-0.0063900964571322
-0.006986246816857
-0.0075649354198452
-0.0081257792223665
-0.0086683885394196
-0.0091925215676903
-0.0096978466157955
-0.010184307708024
-0.010651555966671
-0.011099825691161
-0.011528564683491
-0.011938525409134
-0.012328467473738
-0.012700021387308
-0.013049655993907
-0.013379365475624
-0.013675250456411
0.019144147682308
0.01834987184736
0.017517700812803
0.016676899729049
0.015839410192572
0.015004710269575
0.014168210099894
0.013326823139158
0.012480307345787
0.011630066580824
0.010777643572898
0.0099241533015307
0.0090704549716127
0.0082173713855585
0.0073657426357259
0.0065164451226129
0.0056704193643707
0.0048286577603794
0.0039921650293486
0.0031619381476563
0.0023389711924118
0.0015242598967751
0.0007187963028288
-7.6438409313924e-05
-0.00086047938128817
-0.001632385242063
-0.0023912398253995
-0.0031361563852637
-0.0038662845020816
-0.0045808106434829
-0.0052789679180565
-0.0059600307107597
-0.0066233304964304
-0.0072682372784177
-0.0078941926654871
-0.008500661968126
-0.0090872103416775
-0.0096533870646825
-0.010198905763662
-0.010723363195909
-0.011226680138708
-0.011708403473985
-0.012168807930413
-0.012607140529717
-0.013024348646358
-0.013418749242557
-0.013792367130184
-0.014140614722155
-0.014465407752947
-0.014748276993484
0.020181963054136
0.019311669141204
0.018393452274726
0.017467492573268
0.016549609492723
0.015638477036752
0.014727456583809
0.013812168808907
0.01289214600674
0.011969108005692
0.011044909445238
0.010120785267057
0.0091976015963246
0.0082761737616528
0.0073573473698999
0.0064420182539443
0.0055311632767198
0.0046258231904811
0.0037270523113759
0.0028358946455563
0.0019533920251726
0.0010805915291111
0.00021853988425335
-0.00063172482408158
-0.0014691787541709
-0.0022928198504332
-0.0031016679421849
-0.0038947716650026
-0.0046712154899024
-0.0054301204772048
-0.0061706532899513
-0.0068920214329396
-0.0075934892128537
-0.008274358739565
-0.0089340037482783
-0.0095718200776727
-0.010187305056484
-0.010779934319538
-0.011349355063111
-0.011895079061155
-0.012416971550727
-0.012914455696518
-0.013387798011047
-0.013835995792687
-0.014260143698571
-0.014657964274302
-0.015031930987163
-0.015376172397124
-0.015692807896633
-0.015959764934273
0.021347817981471
0.020392179311055
0.01937638817315
0.018354053891034
0.017345585573964
0.016348512616921
0.015353658037133
0.014355121605086
0.013352221740932
0.012347089300529
0.011341959492853
0.010338206602474
0.0093366985867327
0.0083382372711546
0.0073436746561814
0.0063539324709211
0.0053700322145102
0.0043930711674097
0.0034241605637317
0.0024643976190047
0.0015148778964139
0.00057670629648477
-0.00034900867815992
-0.0012611644644483
-0.0021586701091804
-0.0030404546534264
-0.003905465436385
-0.0047526779049053
-0.0055811018538603
-0.0063897829011089
-0.0071778105074872
-0.0079443146645562
-0.0086884797402083
-0.0094095278730763
-0.010106750574756
-0.010779460651729
-0.011427069454561
-0.012048966903108
-0.012644710017359
-0.013213723214109
-0.013755779215163
-0.014270212947758
-0.014757204267821
-0.015215652849991
-0.015646607743482
-0.016047521274164
-0.016421210560231
-0.016759963669084
-0.017067400952362
-0.017311671115627
0.022644798554303
0.021594661619283
0.020469579721402
0.019339517387521
0.018230270133158
0.017137795921586
0.016049800862984
0.014958609828129
0.013863357985471
0.012766706824726
0.011671352995583
0.010578829259907
0.0094899951807134
0.0084056321482036
0.0073266030801593
0.0062538657464134
0.0051884974973877
0.0041316621341674
0.0030845360773018
0.0020482775001584
0.0010240436416394
1.3005530581429e-05
-0.00098365771625368
-0.0019647699538472
-0.0029291637017471
-0.0038756896804881
-0.0048032126496884
-0.0057106243504708
-0.0065968486134943
-0.0074608447380507
-0.0083016122915212
-0.0091181911143769
-0.0099096716297843
-0.01067518188741
-0.011413913820732
-0.012125081381283
-0.012807989695901
-0.013461924386922
-0.01408632637425
-0.014680510950518
-0.015244126676724
-0.01577637996907
-0.016277349029883
-0.016745718727012
-0.017182544805195
-0.017584824278677
-0.017955403075623
-0.018285418523595
-0.018576841104525
-0.018791693460641
0.024077059070434
0.022923368490927
0.021677096660523
0.0204278849791
0.0192076958048
0.018010361135911
0.01681984500338
0.015626466574525
0.014429235342575
0.013231473733583
0.012036423688039
0.010845796501062
0.0096604317178357
0.0084810799386155
0.0073086196614789
0.0061440601546731
0.0049885502688801
0.0038433324031085
0.002709658375056
0.0015887568725735
0.00048185649553285
-0.00060979554619283
-0.0016849390748354
-0.0027423136908852
-0.0037806642977068
-0.0047987520078032
-0.0057953470667178
-0.0067692458512898
-0.0077192733568959
-0.0086442895209584
-0.009543189807647
-0.010414910813695
-0.011258431853122
-0.012072772368258
-0.012857005463667
-0.013610228952739
-0.014331618055207
-0.015020332858853
-0.015675671003408
-0.016296811406844
-0.016883241911571
-0.017434018660764
-0.017949052273851
-0.01842681405175
-0.018868242857675
-0.019269828292624
-0.019634390157837
-0.019951502636444
-0.02022221441379
-0.020402093639925
0.025649613023528
0.024383139824403
0.02300336852338
0.021623527557837
0.020282438774043
0.018970945476188
0.017668505175697
0.016363258538401
0.015054238912833
0.013745589997862
0.012441174105869
0.011142894007055
0.0098515577857077
0.0085678784098789
0.0072927589857352
0.006027278967261
0.0047726776550873
0.0035302903709087
0.0023014552200143
0.0010874825316922
-0.00011031557780997
-0.0012906033066351
-0.0024520267608021
-0.0035932285993136
-0.0047128531515295
-0.0058095591087054
-0.0068820088762933
-0.0079288898817752
-0.0089489138002644
-0.0099408278823798
-0.010903407330075
-0.011835470795244
-0.012735868830545
-0.013603497442183
-0.014437288140617
-0.015236207234552
-0.015999273691878
-0.016725502648704
-0.017414017410484
-0.018063837844613
-0.018674245920742
-0.019244143087188
-0.019773155976218
-0.020259633731205
-0.020704120305282
-0.02110287786011
-0.021458453040286
-0.02175896631996
-0.022005311245866
-0.022144240340157
0.027367682109431
0.025979260210717
0.024453361414379
0.022931285710851
0.021459415141699
0.020024568194166
0.018600805341781
0.017173904635117
0.015743131203385
0.014313656786491
0.012890039563756
0.01147436688111
0.010067396232396
0.0086698011941818
0.0072825266666577
0.0059067488386813
0.0045438208753777
0.0031951878179837
0.0018622879530313
0.00054652669473682
-0.00075068615807784
-0.0020279114292896
-0.0032836866487803
-0.0045165428063081
-0.005725008883747
-0.0069076263824931
-0.0080629348454582
-0.0091894979493848
-0.01028589852347
-0.011350754863476
-0.012382706019286
-0.013380436670786
-0.01434265054039
-0.015268102529802
-0.016155563695538
-0.017003850251096
-0.017811798012368
-0.018578262834605
-0.019302153204033
-0.019982321440127
-0.020617790625564
-0.021207294514534
-0.021750144813636
-0.022244524031902
-0.0226906419165
-0.023084456334292
-0.023428299172823
-0.023708799888678
-0.023926198908752
-0.024016370692828
0.029235738592375
0.027716228519756
0.026031706638161
0.024356076023907
0.022743793578081
0.021176510086374
0.019622016450323
0.01806359180648
0.01650097535569
0.014940593921579
0.013387779940419
0.011844789169064
0.010312302760755
0.0087909597973287
0.0072817761568997
0.0057860567535452
0.0043052938353093
0.0028410605982094
0.0013949107626741
-3.1638743327644e-05
-0.0014370626173642
-0.0028198004469739
-0.0041782636352226
-0.0055108543155908
-0.0068159692089878
-0.0080920158211254
-0.0093373945252773
-0.010550527798667
-0.011729853421079
-0.012873843157275
-0.013980983966999
-0.01504980610742
-0.016078853038003
-0.017066716454443
-0.018011991382637
-0.018913321700712
-0.019769341295763
-0.020578727059851
-0.02134014251832
-0.022052257743342
-0.022713806246286
-0.023323313679889
-0.023879798434104
-0.024381156503771
-0.024827351755368
-0.025213904397882
-0.025542858414373
-0.0257994731022
-0.02598236658587
-0.026016993237126
0.031256940330171
0.029598151965132
0.02774279440912
0.025902577948768
0.024140569725363
0.022431950331366
0.020737340531037
0.019037461999183
0.017332839686311
0.015631396734799
0.013939296559525
0.012258925507504
0.010590860855222
0.0089357228431885
0.0072946395305661
0.0056690869723888
0.0040607259469895
0.0024712770864756
0.00090242768180235
-0.00064417412137233
-0.0021668665223854
-0.0036639465155621
-0.0051336789502631
-0.006574317177083
-0.0079841066863412
-0.0093613014188489
-0.010704144413702
-0.012010897649896
-0.013279836914729
-0.014509266434173
-0.015697505851121
-0.016842910431654
-0.017943847526757
-0.018998724101917
-0.020005945779926
-0.020963961623336
-0.02187118831108
-0.02272610207104
-0.023527108162764
-0.024272668444931
-0.024961212438969
-0.025591034120993
-0.026160823472114
-0.026668176135326
-0.027112752881531
-0.027489568745999
-0.027800393260264
-0.028028962174148
-0.028172332796977
-0.028145478609089
0.033433154336387
0.031627586987699
0.029589687140788
0.027574526928588
0.025654110068916
0.023795615589554
0.021951617622852
0.020100375196284
0.018243602976492
0.016390954021435
0.014549443990864
0.012721541275047
0.010907700224163
0.009108551425369
0.0073253881313875
0.0055599041512772
0.0038139607072937
0.0020894492061444
0.00038821236981221
-0.0012879451735191
-0.0029371985251201
-0.0045576766818579
-0.0061474744739094
-0.0077046740515649
-0.0092273482598299
-0.010713576084003
-0.012161423676184
-0.01356897035617
-0.014934311317309
-0.016255561309253
-0.017530855763256
-0.018758351431829
-0.019936227802946
-0.021062681836388
-0.022135920085038
-0.023154167147156
-0.024115625067998
-0.025018529055374
-0.025861042332059
-0.026641370821726
-0.027357664502652
-0.028007940329958
-0.028590573216667
-0.029102827831873
-0.029544054522918
-0.02990869204735
-0.030198334749319
-0.030394888355773
-0.03049418506216
-0.030399704335475
0.035764605990259
0.033805429802056
0.03157400172029
0.02937453821287
0.027287922477407
0.025271525100161
0.023269070673821
0.021256663322371
0.019237727055812
0.01722385694254
0.015222880798559
0.013237278419062
0.011267384099872
0.0093138973880577
0.0073783434085332
0.0054626839336796
0.0035690110316642
0.0016994098367984
-0.00014409394727121
-0.0019595080807412
-0.003744812931298
-0.0054979383442344
-0.0072167798185214
-0.0088992208039621
-0.010543138881591
-0.012146414083419
-0.013706914406211