/*--------------------------------*- C++ -*----------------------------------*\
| =========                 |                                                 |
| \\      /  F ield         | OpenFOAM: The Open Source CFD Toolbox           |
|  \\    /   O peration     | Version:  2112                                  |
|   \\  /    A nd           | Website:  www.openfoam.com                      |
|    \\/     M anipulation  |                                                 |
\*---------------------------------------------------------------------------*/
FoamFile
{
    version     2.0;
    format      ascii;
    arch        "LSB;label=32;scalar=64";
    class       volVectorField;
    location    "12.2";
    object      U;
}
// * * * * * * * * * * * * * * * * * * * * * * * * * * * * * * * * * * * * * //

dimensions      [0 1 -1 0 0 0 0];

internalField   nonuniform List<vector> 
22000
(
(1.0000010293692 -2.5084527463525e-05 0)
(1.0000259160759 -7.4943328127771e-05 0)
(1.0000736484776 -0.00012466467963679 0)
(1.0001453093641 -0.0001740677569588 0)
(1.0002412454169 -0.00022309584679881 0)
(1.0003613004623 -0.00027178842947878 0)
(1.0005051446418 -0.00032015214342082 0)
(1.0006724712381 -0.00036812314748224 0)
(1.000863016698 -0.00041559244476896 0)
(1.0010765343612 -0.00046249274995173 0)
(1.0013127591981 -0.00050879043952961 0)
(1.0015714371978 -0.00055452033380272 0)
(1.0018522944499 -0.0005996637382052 0)
(1.0021550774373 -0.00064424308698536 0)
(1.0024794636975 -0.00068812572948655 0)
(1.00282515551 -0.00073132432699243 0)
(1.0031917165584 -0.00077357860322642 0)
(1.0035787971205 -0.00081503471773654 0)
(1.0039858102918 -0.00085524437240221 0)
(1.004412412131 -0.00089469368918563 0)
(1.0048578211809 -0.00093247703738496 0)
(1.0053218093928 -0.00096981027320317 0)
(1.0058032724336 -0.0010046895075554 0)
(1.006302289829 -0.0010399766972522 0)
(1.0068171443006 -0.0010711458726125 0)
(1.0073486147412 -0.0011048521385283 0)
(1.0078937947926 -0.0011307989606069 0)
(1.0084549611104 -0.0011643795888396 0)
(1.0090269308429 -0.0011820375526836 0)
(1.0096150989569 -0.0012192428557041 0)
(1.0000004937191 -7.3830594839871e-05 0)
(1.0000253970425 -0.00022079093981901 0)
(1.000073482774 -0.00036752748893868 0)
(1.0001457608661 -0.00051345389652319 0)
(1.0002426216502 -0.00065835804489562 0)
(1.0003639778842 -0.0008023405741894 0)
(1.0005095490775 -0.00094542876908737 0)
(1.0006790719234 -0.0010874461404695 0)
(1.0008723103529 -0.001228073428241 0)
(1.0010890539192 -0.0013671014951564 0)
(1.0013290471089 -0.0015044139393288 0)
(1.0015920693552 -0.0016400955128882 0)
(1.0018778270768 -0.0017740808501792 0)
(1.0021861121539 -0.0019064316227179 0)
(1.0025165463943 -0.0020367638928957 0)
(1.0028689329905 -0.0021651186550285 0)
(1.0032427172237 -0.0022907420743959 0)
(1.0036377680214 -0.0024140552092879 0)
(1.0040532236566 -0.0025337491930445 0)
(1.004489190994 -0.0026512185333387 0)
(1.0049442544192 -0.0027638274133443 0)
(1.0054191410338 -0.0028750753318737 0)
(1.0059113342845 -0.0029791659375805 0)
(1.0064230001184 -0.003084337089022 0)
(1.0069493161752 -0.003177556555165 0)
(1.0074956516473 -0.0032779361339782 0)
(1.0080523195658 -0.0033559385454631 0)
(1.0086316265643 -0.0034556413165759 0)
(1.0092137642081 -0.0035097197177025 0)
(1.0098258893093 -0.0036193939108231 0)
(1.0000005152061 -0.00012061434633359 0)
(1.0000263985845 -0.00036100352827782 0)
(1.0000762860135 -0.00060124071756121 0)
(1.0001511339477 -0.00084033643845364 0)
(1.0002512999156 -0.0010778932627362 0)
(1.0003767019642 -0.0013140631564673 0)
(1.0005270883125 -0.0015489306650534 0)
(1.0007022544656 -0.0017822616613388 0)
(1.0009020180083 -0.0020135563268786 0)
(1.0011262408318 -0.0022424521274331 0)
(1.0013746939742 -0.0024687014097797 0)
(1.0016472119407 -0.0026923856383146 0)
(1.001943466706 -0.0029133499646471 0)
(1.0022633159899 -0.0031316953035683 0)
(1.0026062887412 -0.0033468028608615 0)
(1.0029723494407 -0.0035587997302367 0)
(1.0033607554651 -0.0037664570161173 0)
(1.0037717384357 -0.0039705259757749 0)
(1.0042039912929 -0.0041687827904893 0)
(1.0046583737204 -0.0043635861952882 0)
(1.005132409389 -0.0045504194556902 0)
(1.0056284419078 -0.0047352196467288 0)
(1.0061415311407 -0.0049080999322882 0)
(1.0066774505202 -0.0050830869462487 0)
(1.0072259186612 -0.0052379929437287 0)
(1.0078004328634 -0.0054053629517083 0)
(1.0083790775503 -0.0055349280949717 0)
(1.0089923745837 -0.0057017020943379 0)
(1.0095934269022 -0.0057911648673445 0)
(1.010250079155 -0.0059754565865912 0)
(1.0000005228888 -0.00016643721667977 0)
(1.000027487769 -0.000498447356829 0)
(1.0000794793655 -0.00083034150693141 0)
(1.0001574868213 -0.0011607909766113 0)
(1.0002618717502 -0.0014892304624801 0)
(1.0003925536693 -0.0018158875009776 0)
(1.0005492965405 -0.0021409767295225 0)
(1.0007319625136 -0.0024642970815992 0)
(1.0009404419525 -0.0027852177886407 0)
(1.0011747037892 -0.003103212005383 0)
(1.00143456225 -0.0034178328871367 0)
(1.0017199352128 -0.0037290839608681 0)
(1.0020304490242 -0.0040366570339228 0)
(1.0023660590719 -0.0043406956953282 0)
(1.0027261647718 -0.0046403675357089 0)
(1.0031109662155 -0.0049359778953549 0)
(1.0035194566909 -0.0052258424610247 0)
(1.0039523940194 -0.0055111364802006 0)
(1.0044078393902 -0.0057886215713339 0)
(1.0048877394666 -0.0060617263953143 0)
(1.0053881040337 -0.006323789174367 0)
(1.0059136026405 -0.0065834615882756 0)
(1.0064558269135 -0.0068262423899622 0)
(1.0070257320572 -0.0070726630619485 0)
(1.0076052190524 -0.0072902519839128 0)
(1.0082194487607 -0.0075266510112619 0)
(1.0088290076855 -0.0077083117911887 0)
(1.0094905306096 -0.0079449633514609 0)
(1.0101184110295 -0.0080691345401589 0)
(1.0108387101948 -0.0083324343645896 0)
(1.0000005294884 -0.00021148118028809 0)
(1.0000287100178 -0.00063377298126896 0)
(1.000083080497 -0.0010560024795144 0)
(1.0001646836586 -0.0014765385603934 0)
(1.0002739014981 -0.0018946534249711 0)
(1.0004106643692 -0.0023106822069956 0)
(1.0005747597689 -0.0027250635584035 0)
(1.0007661378809 -0.0031377413836714 0)
(1.0009847862251 -0.0035480130124752 0)
(1.0012308170555 -0.0039551738394341 0)
(1.0015041068935 -0.0043584968681349 0)
(1.0018046893522 -0.0047578214924908 0)
(1.0021321403136 -0.0051526113819113 0)
(1.0024865510895 -0.0055430601803543 0)
(1.0028671632197 -0.0059281445111742 0)
(1.0032744924719 -0.0063084608345271 0)
(1.0037072010175 -0.0066818848500134 0)
(1.0041667393979 -0.0070501358592709 0)
(1.0046503633807 -0.0074088258130601 0)
(1.0051614389431 -0.0077626008180209 0)
(1.0056940321608 -0.0081023030559429 0)
(1.0062558346935 -0.0084396793351274 0)
(1.0068339724711 -0.0087549084005336 0)
(1.007446109041 -0.0090759961558874 0)
(1.0080640731803 -0.0093586620087354 0)
(1.0087280865301 -0.0096678944907659 0)
(1.0093761997011 -0.0099034337486897 0)
(1.0100986811973 -0.010214832379987 0)
(1.0107601269922 -0.010373948154062 0)
(1.0115613781086 -0.010723383182133 0)
(1.000000533424 -0.00025581047658488 0)
(1.0000299859254 -0.00076721725348686 0)
(1.0000868534736 -0.0012786656970242 0)
(1.0001722389964 -0.0017882632307522 0)
(1.0002865523938 -0.002295119062549 0)
(1.000429745313 -0.0027997075068426 0)
(1.0006016428335 -0.0033027962770315 0)
(1.0008023104894 -0.0038046016473484 0)
(1.0010318618198 -0.0043044165079331 0)
(1.0012905920932 -0.0048013439899961 0)
(1.001578463118 -0.0052942855887362 0)
(1.0018956603235 -0.0057828205707033 0)
(1.0022417095951 -0.0062661003852619 0)
(1.0026168808065 -0.0067443797823465 0)
(1.0030202363363 -0.0072164695969903 0)
(1.0034526916357 -0.0076833894010603 0)
(1.0039125204928 -0.0081425893806767 0)
(1.0044020347131 -0.0085964767472052 0)
(1.0049175264178 -0.0090393521512329 0)
(1.0054641094557 -0.0094772622474969 0)
(1.0060335039633 -0.0098981337397855 0)
(1.0066370990672 -0.010317273949046 0)
(1.0072566119065 -0.010708690954811 0)
(1.0079178802608 -0.011109039958665 0)
(1.0085805203145 -0.011460388424756 0)
(1.0093030479046 -0.011847789970549 0)
(1.009996211965 -0.012140128609342 0)
(1.010791020866 -0.012532937709308 0)
(1.0114918544881 -0.012728091218929 0)
(1.0123898880079 -0.013173028557667 0)
(1.0000005324467 -0.00029935966559437 0)
(1.000031217366 -0.00089860775809885 0)
(1.0000905164927 -0.0014980644523953 0)
(1.000179598541 -0.0020956230009376 0)
(1.0002989083284 -0.0026902296773887 0)
(1.0004484294739 -0.0032825324836764 0)
(1.0006280398704 -0.0038737431226968 0)
(1.0008379493007 -0.0044644905487936 0)
(1.001078428296 -0.0050541390371806 0)
(1.0013499968188 -0.0056415871845525 0)
(1.0016527280338 -0.0062252692352492 0)
(1.0019869983643 -0.0068044044278905 0)
(1.0023522895 -0.0073777437609211 0)
(1.0027490966464 -0.007945619436991 0)
(1.0031762894093 -0.0085067051344312 0)
(1.003635270312 -0.0090625919239463 0)
(1.0041238784454 -0.0096103192058051 0)
(1.0046454556857 -0.010153146963036 0)
(1.0051951905032 -0.010683883730938 0)
(1.0057802655584 -0.011210191569995 0)
(1.0063896866071 -0.01171660957732 0)
(1.0070391887668 -0.012222541485855 0)
(1.0077042052133 -0.012694858793838 0)
(1.0084201347497 -0.013180204746969 0)
(1.0091323928985 -0.013604897450778 0)
(1.0099208211095 -0.014077142611175 0)
(1.0106644483507 -0.014430259636847 0)
(1.0115416275907 -0.01491273395846 0)
(1.0122869346771 -0.015145911664315 0)
(1.0132961989586 -0.015697692497545 0)
(1.0000005248838 -0.0003419466752278 0)
(1.0000323091148 -0.0010274126673849 0)
(1.0000937950558 -0.0017133250473705 0)
(1.0001862204642 -0.0023974161932759 0)
(1.0003100719659 -0.003078472405499 0)
(1.0004653763392 -0.0037573538465174 0)
(1.0006520802622 -0.0044358390317228 0)
(1.000870567039 -0.0051151198683183 0)
(1.00112129597 -0.0057947153474759 0)
(1.001405054115 -0.0064733113103143 0)
(1.001722054499 -0.0071487788059817 0)
(1.0020729059526 -0.0078198774052575 0)
(1.0024570569091 -0.0084848690185825 0)
(1.0028752777388 -0.0091441856424603 0)
(1.0033262396614 -0.0097963962145924 0)
(1.0038119214083 -0.010443825174536 0)
(1.0043296933687 -0.01108311705474 0)
(1.0048840936365 -0.011718567705938 0)
(1.0054690890623 -0.012341300291789 0)
(1.0060942387227 -0.012960835282354 0)
(1.0067455097099 -0.013557814076602 0)
(1.0074435903961 -0.01415633057426 0)
(1.0081568467098 -0.014715066281565 0)
(1.0089315202379 -0.015292119671801 0)
(1.0096970321747 -0.015795767127475 0)
(1.0105573159572 -0.016360736857252 0)
(1.0113557110944 -0.016779646892248 0)
(1.0123238700229 -0.017361524215798 0)
(1.0131180190423 -0.017635724436481 0)
(1.0142514153243 -0.018307546763994 0)
(1.0000005092778 -0.00038330417993243 0)
(1.0000331716132 -0.0011528362393752 0)
(1.0000964289393 -0.0019231294471476 0)
(1.0001915896155 -0.0026918139741352 0)
(1.0003191883529 -0.0034575221743419 0)
(1.0004793066004 -0.004221367608265 0)
(1.0006719761826 -0.0049858229999611 0)
(1.0008977824826 -0.0057527997304149 0)
(1.0011574048066 -0.0065220609425959 0)
(1.0014519387291 -0.0072920766844122 0)
(1.0017817668463 -0.0080600624501706 0)
(1.0021477724062 -0.008824222398497 0)
(1.0025493861148 -0.0095822441168182 0)
(1.0029877046326 -0.01033468803232 0)
(1.0034612033718 -0.011080055466968 0)
(1.003972525409 -0.011821576117742 0)
(1.0045185521931 -0.012555518700079 0)
(1.0051051766964 -0.013287412486123 0)
(1.0057250530473 -0.014006497892289 0)
(1.006390401837 -0.014724419728211 0)
(1.0070838832577 -0.015417391925398 0)
(1.0078316886235 -0.016114833766549 0)
(1.008594451207 -0.01676613277599 0)
(1.0094303911938 -0.017442392671226 0)
(1.010251400113 -0.018031437445905 0)
(1.0111879200665 -0.018698065156641 0)
(1.0120442011585 -0.019188791672377 0)
(1.0131103206257 -0.019881146833519 0)
(1.0139569275126 -0.020200491151198 0)
(1.0152255445173 -0.021007206186435 0)
(1.0000004843449 -0.00042311069082138 0)
(1.0000337233057 -0.0012739127127827 0)
(1.0000981810816 -0.0021258717653449 0)
(1.0001952354214 -0.002976578313192 0)
(1.0003254751528 -0.0038245193451691 0)
(1.0004890476407 -0.0046711040698821 0)
(1.0006860857264 -0.0055196279622372 0)
(1.0009174031325 -0.00637288068133 0)
(1.001183928491 -0.0072309636987015 0)
(1.0014871041446 -0.008092134018098 0)
(1.0018275119865 -0.0089528666198435 0)
(1.0022063498578 -0.0098107211096235 0)
(1.0026230504997 -0.010662733177441 0)
(1.0030790862759 -0.011509625566463 0)
(1.0035727482572 -0.012349876238825 0)
(1.0041074265833 -0.013187796330821 0)
(1.0046795094295 -0.014019305628508 0)
(1.0052963889023 -0.014851371432502 0)
(1.0059493476062 -0.015671161986049 0)
(1.006653517815 -0.016492725135313 0)
(1.0073880559193 -0.017287321701463 0)
(1.0081851207615 -0.018090348104778 0)
(1.0089971019553 -0.018840793464417 0)
(1.0098951437358 -0.019624334740962 0)
(1.0107723931144 -0.020305922898032 0)
(1.0117877831712 -0.02108400967273 0)
(1.0127037865306 -0.021653552189629 0)
(1.0138729983141 -0.022468634192197 0)
(1.0147748718316 -0.022838474068625 0)
(1.0161876716579 -0.023796351947226 0)
(1.0000004492497 -0.00046101950227244 0)
(1.0000338928862 -0.0013895922643467 0)
(1.0000988436922 -0.0023198007767344 0)
(1.0001967472056 -0.0032492607976363 0)
(1.0003282511688 -0.0041763243076051 0)
(1.0004935780684 -0.0051027371689939 0)
(1.000692975943 -0.0060327437135262 0)
(1.0009275085651 -0.0069701683681155 0)
(1.0011983804047 -0.0079155484562737 0)
(1.0015074127136 -0.0088669359476152 0)
(1.0018554163568 -0.0098199919894011 0)
(1.0022439378932 -0.010771549895023 0)
(1.0026724378864 -0.011717929527883 0)
(1.0031428052744 -0.0126600504365 0)
(1.0036531723713 -0.013596425682591 0)
(1.0042077420633 -0.014532615315192 0)
(1.004802431357 -0.015464239267658 0)
(1.0054462432835 -0.016399894029198 0)
(1.006129080079 -0.017324521907031 0)
(1.0068691743988 -0.018254835186581 0)
(1.0076420824999 -0.019156668527096 0)
(1.0084862657019 -0.020072000615235 0)
(1.0093455713929 -0.020928426325375 0)
(1.0103047253577 -0.021827616112496 0)
(1.0112373588683 -0.02260946729569 0)
(1.0123322906512 -0.02350938003461 0)
(1.01330842168 -0.024165654030742 0)
(1.0145837523449 -0.025116622384896 0)
(1.0155428193786 -0.025543668449857 0)
(1.017106405673 -0.026670169810861 0)
(1.0000004034786 -0.00049668670579949 0)
(1.0000336238082 -0.0014988253290064 0)
(1.0000982480926 -0.0025031571399652 0)
(1.0001957892013 -0.0035073892179711 0)
(1.0003269598584 -0.0045097518620098 0)
(1.0004920634079 -0.0055123666495448 0)
(1.0006914745404 -0.0065205474404132 0)
(1.0009265208337 -0.0075393026309419 0)
(1.001198706316 -0.0085697044250251 0)
(1.0015102520739 -0.0096096110582032 0)
(1.0018622303395 -0.010653812255054 0)
(1.0022565555492 -0.011698339386256 0)
(1.0026927567437 -0.012738753621989 0)
(1.0031731537736 -0.013776197966674 0)
(1.003695781485 -0.014809305953626 0)
(1.0042656674811 -0.015845021570153 0)
(1.0048783516518 -0.016878769009807 0)
(1.0055444596642 -0.017920899475651 0)
(1.0062526373619 -0.018954088179439 0)
(1.0070242312571 -0.019997853821785 0)
(1.0078313516784 -0.021012330809387 0)
(1.0087187487103 -0.022046449162777 0)
(1.0096219722843 -0.023015796982575 0)
(1.0106391991682 -0.024038919297545 0)
(1.0116249385522 -0.024929292101538 0)
(1.0127976981839 -0.025961454370485 0)
(1.0138330752852 -0.026713368248481 0)
(1.0152148102725 -0.027813650671345 0)
(1.0162319295579 -0.02830601710713 0)
(1.0179500352285 -0.029619320208915 0)
(1.0000003472513 -0.00052979321045064 0)
(1.000032879827 -0.0016006322330732 0)
(1.0000962828442 -0.0026742922886082 0)
(1.0001921311146 -0.0037486356314182 0)
(1.0003212070334 -0.004821786082677 0)
(1.0004838990746 -0.0058962773545389 0)
(1.0006807193321 -0.0069786052085521 0)
(1.0009132646117 -0.0080751011550453 0)
(1.0011833591559 -0.0091874705534448 0)
(1.0014936298758 -0.010313392558186 0)
(1.0018454460833 -0.011446744228179 0)
(1.0022410868787 -0.012582686602869 0)
(1.0026802113246 -0.013716002027832 0)
(1.0031655417884 -0.014848072229766 0)
(1.0036951344524 -0.015977770369426 0)
(1.0042747550172 -0.017113505398377 0)
(1.0048998032544 -0.018250703434717 0)
(1.0055823104111 -0.019401455472283 0)
(1.0063101239737 -0.020546364318 0)
(1.0071072224947 -0.021707598612662 0)
(1.0079431416982 -0.022839769091617 0)
(1.0088678690045 -0.023998556517577 0)
(1.0098104828359 -0.025087842542271 0)
(1.0108800081801 -0.026242408508783 0)
(1.011916320572 -0.027250785402108 0)
(1.0131607340568 -0.028423743459868 0)
(1.0142565388331 -0.029283793800679 0)
(1.0157372759836 -0.030542640718204 0)
(1.0168189481357 -0.031115278397419 0)
(1.0186884163772 -0.032631188396849 0)
(1.0000002804697 -0.0005600590070574 0)
(1.000031640781 -0.0016941449548106 0)
(1.0000928903231 -0.002831742324279 0)
(1.0001856521875 -0.0039709279181796 0)
(1.0003107780163 -0.0051097330996657 0)
(1.000468743348 -0.006251135765092 0)
(1.0006602035706 -0.0074029128572163 0)
(1.0008870251926 -0.0085728459327274 0)
(1.0011513640917 -0.0097633650036064 0)
(1.0014562542638 -0.010971991674155 0)
(1.0018033862904 -0.012191660292298 0)
(1.0021953988615 -0.013416611462073 0)
(1.0026321274345 -0.014640836215035 0)
(1.0031166742282 -0.015865983782151 0)
(1.0036472142481 -0.017091272925636 0)
(1.0042301747341 -0.018326678934161 0)
(1.0048610354405 -0.019567797015211 0)
(1.0055529943663 -0.020828475171748 0)
(1.0062936237421 -0.022087464461435 0)
(1.007108869717 -0.023369326220277 0)
(1.0079669056467 -0.024623671128012 0)
(1.0089213477533 -0.025912136507287 0)
(1.0098974063075 -0.027128148217838 0)
(1.0110114612949 -0.028421014148895 0)
(1.0120941149549 -0.02955681493505 0)
(1.0134019728354 -0.030878938625082 0)
(1.0145576944935 -0.031860323132892 0)
(1.0161268265853 -0.033285571521137 0)
(1.0172812630293 -0.033959181084355 0)
(1.0192912495972 -0.035688503627409 0)
(1.0000002042933 -0.00058725667441633 0)
(1.0000299045155 -0.0017786476210837 0)
(1.0000880599007 -0.0029742931591668 0)
(1.000176325397 -0.0041725395991052 0)
(1.0002956155933 -0.0053713379945082 0)
(1.0004464928873 -0.0065741358220261 0)
(1.0006297565019 -0.0077900745953488 0)
(1.0008475390627 -0.0090284967017079 0)
(1.0011023260905 -0.010292638575388 0)
(1.0013975548488 -0.011579890947742 0)
(1.0017352423444 -0.012882224776276 0)
(1.0021183891419 -0.014192930330145 0)
(1.0025470245579 -0.015505200035002 0)
(1.0030246353269 -0.016820996352102 0)
(1.0035495487656 -0.018139968278913 0)
(1.0041288581994 -0.019473788312461 0)
(1.004758184398 -0.020818322788488 0)
(1.00545188834 -0.022189313069955 0)
(1.0061973800535 -0.023563683722851 0)
(1.0070225365751 -0.024968510747387 0)
(1.0078943876405 -0.026348362301065 0)
(1.0088700526582 -0.027770981913611 0)
(1.0098712743371 -0.02911925519577 0)
(1.0110215156608 -0.030557301421459 0)
(1.0121427111355 -0.031828391460008 0)
(1.0135063826022 -0.033309382237854 0)
(1.0147152854626 -0.03442228844985 0)
(1.0163665544588 -0.036026886436517 0)
(1.0175889529244 -0.036813643825032 0)
(1.0197342577277 -0.038772866873824 0)
(1.0000001193407 -0.00061122194713523 0)
(1.0000276847016 -0.0018536110777281 0)
(1.0000818267403 -0.00310103923541 0)
(1.0001642127048 -0.0043521704183129 0)
(1.0002758121056 -0.0056048852910539 0)
(1.0004172705373 -0.0068631187705228 0)
(1.0005895258226 -0.0081374431601177 0)
(1.0007949668262 -0.0094388535167684 0)
(1.0010363970088 -0.010771464713151 0)
(1.00131764503 -0.012132564568613 0)
(1.0016410471477 -0.0135131516871 0)
(1.0020099604467 -0.01490554920597 0)
(1.0024246124779 -0.016302155664186 0)
(1.0028888777658 -0.017705294148738 0)
(1.0034012519336 -0.019115128536821 0)
(1.0039694991204 -0.020545145375005 0)
(1.0045894124764 -0.021991590700662 0)
(1.0052765226331 -0.023472216872263 0)
(1.006018138873 -0.024962188432095 0)
(1.0068440792619 -0.026491196686031 0)
(1.0077203447044 -0.02799879281938 0)
(1.0087075612391 -0.029558966521723 0)
(1.0097242084466 -0.031044023061901 0)
(1.0109007912907 -0.032633196649187 0)
(1.012050921012 -0.034046641466091 0)
(1.0134608979535 -0.035695415977269 0)
(1.0147141436499 -0.036949642607423 0)
(1.0164391168326 -0.038745888532231 0)
(1.017722452094 -0.039658211254856 0)
(1.0199949870675 -0.041862969820001 0)
(1.000000027335 -0.00063185815547437 0)
(1.000025008795 -0.0019187076559616 0)
(1.00007426579 -0.003211408504825 0)
(1.0001494576006 -0.0045089833101573 0)
(1.0002515965347 -0.005809249843907 0)
(1.0003814047767 -0.0071166395351617 0)
(1.0005399492806 -0.0084432031804722 0)
(1.0007298583342 -0.0098016594056066 0)
(1.0009542331725 -0.011197062593222 0)
(1.0012172722825 -0.012626626096426 0)
(1.0015216141638 -0.014080378930529 0)
(1.001870958444 -0.015549671752972 0)
(1.0022657251956 -0.017026124123207 0)
(1.002710169931 -0.018512465113627 0)
(1.0032029611528 -0.020009454503075 0)
(1.0037525277723 -0.021532495559917 0)
(1.0043548510098 -0.023078320519476 0)
(1.0050266214553 -0.024666801306878 0)
(1.0057550932123 -0.026271427968107 0)
(1.0065720153085 -0.027924608881724 0)
(1.0074424643805 -0.029560948847504 0)
(1.0084305589856 -0.031260815994644 0)
(1.0094517140585 -0.032885974905582 0)
(1.0106434273367 -0.034631023184606 0)
(1.0118113422624 -0.03619284536081 0)
(1.0132563562773 -0.038017254344691 0)
(1.0145432072861 -0.039421826518253 0)
(1.0163312441959 -0.041421106114064 0)
(1.0176662568142 -0.042471159066495 0)
(1.0200549118724 -0.044935463500607 0)
(0.99999992929276 -0.0006491360217374 0)
(1.0000219174136 -0.0019738116293113 0)
(1.000065489768 -0.0033051656056041 0)
(1.00013227461 -0.0046426110622288 0)
(1.0002233161829 -0.0059839077076995 0)
(1.000339404134 -0.0073339838918104 0)
(1.0004817199826 -0.0087063977377978 0)
(1.0006531069384 -0.010115639416436 0)
(1.00085693597 -0.011567752126126 0)
(1.0010977446336 -0.013059901385783 0)
(1.0013784496768 -0.014581161718442 0)
(1.0017030698015 -0.016121914987118 0)
(1.0020722051761 -0.017673028574081 0)
(1.002490474235 -0.019237675388348 0)
(1.0029567124705 -0.020817288503048 0)
(1.003479989859 -0.02242926801093 0)
(1.0040564795853 -0.024070937964756 0)
(1.0047039995285 -0.025764382317934 0)
(1.0054097817857 -0.027481523746234 0)
(1.0062074689705 -0.029257580413038 0)
(1.0070613053992 -0.031022332689295 0)
(1.0080388634355 -0.032862633512479 0)
(1.0090526752853 -0.034629838509648 0)
(1.0102471753281 -0.036534100206197 0)
(1.0114204034378 -0.038249035746597 0)
(1.0128876429341 -0.040255655389968 0)
(1.0141957071806 -0.041818577938829 0)
(1.0160341673458 -0.044031161145402 0)
(1.0174094683651 -0.045230375591118 0)
(1.0199000603617 -0.047966172385224 0)
(0.99999982742901 -0.0006630885456462 0)
(1.000018459205 -0.0020189868242022 0)
(1.0000556365912 -0.0033823948168172 0)
(1.0001129332599 -0.0047531377607368 0)
(1.0001914117925 -0.0061289172421069 0)
(1.0002919181355 -0.0075151482811101 0)
(1.0004157330184 -0.0089269091710025 0)
(1.0005658818381 -0.010380487067973 0)
(1.0007459715626 -0.011882953286346 0)
(1.0009608353992 -0.013431445436206 0)
(1.0012136409693 -0.015014111996664 0)
(1.0015086898929 -0.016620371048952 0)
(1.0018467521829 -0.01824038100489 0)
(1.002232772817 -0.019877778628707 0)
(1.0026657523169 -0.021534753864634 0)
(1.0031553443801 -0.023230745871703 0)
(1.0036979222713 -0.024963788464616 0)
(1.0043123507332 -0.026758232933421 0)
(1.004985884938 -0.028584582312696 0)
(1.005753970744 -0.030480921506569 0)
(1.0065801240501 -0.032372402171197 0)
(1.0075352770137 -0.034352411704213 0)
(1.008529270017 -0.036262120233327 0)
(1.0097133127582 -0.03832738699749 0)
(1.0108783168263 -0.040198592911361 0)
(1.0123535173249 -0.042392600158542 0)
(1.0136689930445 -0.044120475743946 0)
(1.0155435272629 -0.046555744759453 0)
(1.0169459931175 -0.047914596415526 0)
(1.0195216894975 -0.050931690313753 0)
(0.99999972248246 -0.00067380179830733 0)
(1.0000146835128 -0.0020544574396279 0)
(1.0000448528582 -0.0034434529846179 0)
(1.0000917282463 -0.004841040469962 0)
(1.0001563810481 -0.0062448588831082 0)
(1.0002396936337 -0.0076607835524065 0)
(1.0003430262269 -0.0091054042038175 0)
(1.0004695446131 -0.010596804436587 0)
(1.0006230616265 -0.012143120327833 0)
(1.0008086481073 -0.013741475980522 0)
(1.0010297034217 -0.015379146135233 0)
(1.0012907500229 -0.017044580404508 0)
(1.001592739224 -0.018727296798262 0)
(1.0019408610048 -0.020431369112422 0)
(1.0023343184405 -0.022159854739951 0)
(1.0027832100045 -0.023934191536138 0)
(1.0032841846129 -0.025753308293653 0)
(1.0038569456738 -0.027643766257691 0)
(1.0044889260752 -0.029574939155756 0)
(1.0052171062203 -0.031587674605141 0)
(1.0060045613339 -0.033602905218268 0)
(1.006925197501 -0.035720410072482 0)
(1.0078867293949 -0.037771574004427 0)
(1.0090463482503 -0.039998055187749 0)
(1.0101890526099 -0.042026894589614 0)
(1.0116564420165 -0.044411758573199 0)
(1.0129641410029 -0.046309373807891 0)
(1.0148585683045 -0.048975178002075 0)
(1.0162734477653 -0.050503889557886 0)
(1.018916568731 -0.053810399496615 0)
(0.99999961541059 -0.00068140846074449 0)
(1.000010638146 -0.0020805847950794 0)
(1.0000332775871 -0.0034889126723707 0)
(1.0000689434446 -0.0049070808545927 0)
(1.0001187186063 -0.0063326761604595 0)
(1.0001835030627 -0.0077720073246164 0)
(1.0002647137322 -0.0092431429962137 0)
(1.0003655867687 -0.010765919992373 0)
(1.0004901095307 -0.012349559470439 0)
(1.0006435073274 -0.013991169902768 0)
(1.0008294247137 -0.015677239970488 0)
(1.0010525075331 -0.017395235288135 0)
(1.0013139692882 -0.019134157812314 0)
(1.0016190718329 -0.020898415752391 0)
(1.0019673698975 -0.022692117731631 0)
(1.0023690686441 -0.024538481441107 0)
(1.00282138046 -0.026437690789629 0)
(1.0033442881686 -0.028418154985498 0)
(1.0039259799206 -0.030448789178463 0)
(1.0046040860119 -0.032572613173053 0)
(1.0053423255377 -0.034707339780586 0)
(1.0062160786126 -0.036958372399773 0)
(1.0071329651709 -0.039148337685701 0)
(1.0082534095031 -0.041534292536341 0)
(1.0093602976776 -0.043720117439437 0)
(1.0108022556648 -0.046297189012522 0)
(1.0120876076504 -0.048365913584335 0)
(1.0139799204102 -0.05126811699932 0)
(1.0153949618554 -0.052971085326154 0)
(1.018074591942 -0.056570796924258 0)
(0.99999950336208 -0.00068609802640311 0)
(1.000006394683 -0.0020978934725726 0)
(1.0000211113025 -0.0035195886565203 0)
(1.0000449417428 -0.004952299798653 0)
(1.0000789820947 -0.0063935820069865 0)
(1.0001241546562 -0.0078501622704928 0)
(1.000181939812 -0.0093415655328337 0)
(1.0002555633736 -0.010889336221351 0)
(1.0003491475988 -0.012503794913032 0)
(1.0004679385735 -0.014182002790138 0)
(1.0006158599408 -0.01590975238738 0)
(1.0007975273052 -0.017673459720886 0)
(1.0010146050577 -0.019461773688151 0)
(1.0012721311721 -0.021279232958532 0)
(1.0015703822023 -0.023131312397622 0)
(1.0019189952804 -0.025042558669959 0)
(1.0023164956956 -0.027015100779834 0)
(1.0027818246714 -0.029078312020949 0)
(1.0033055568849 -0.031202028140159 0)
(1.0039235019499 -0.033429800146206 0)
(1.0046033226794 -0.035678455169557 0)
(1.0054172682314 -0.038056419670913 0)
(1.0062789700708 -0.040380783882351 0)
(1.0073440492802 -0.042920971405409 0)
(1.0084037437356 -0.045260832049384 0)
(1.0098007673351 -0.048027681546176 0)
(1.0110521814845 -0.050265439475577 0)
(1.0129176074044 -0.053404032943589 0)
(1.0143186820385 -0.055277815468014 0)
(1.0170047057463 -0.059165650599646 0)
(0.99999938353716 -0.00068816958385144 0)
(1.0000020901996 -0.0021072417344663 0)
(1.0000087099846 -0.0035367909976059 0)
(1.0000203517427 -0.0049784102091122 0)
(1.0000380994964 -0.0064296753586154 0)
(1.0000628901488 -0.0078976045889894 0)
(1.0000962557904 -0.0094030897081739 0)
(1.0001413410227 -0.01096936739387 0)
(1.0002023953122 -0.012607945096073 0)
(1.0002845847178 -0.014315913308995 0)
(1.0003921809328 -0.016078534601712 0)
(1.000529613666 -0.017881116231589 0)
(1.0006992154057 -0.019712067904083 0)
(1.0009053989289 -0.021575694050016 0)
(1.0011496418111 -0.023479125312396 0)
(1.0014400459243 -0.025447553025276 0)
(1.0017776609955 -0.027486079269457 0)
(1.0021782673577 -0.029623691894986 0)
(1.0026378377966 -0.031833530998797 0)
(1.0031856755257 -0.034156622028749 0)
(1.0038002594067 -0.036513565695787 0)
(1.0045405128768 -0.039009662540771 0)
(1.0053405846085 -0.041464607209071 0)
(1.0063304794273 -0.044150446561309 0)
(1.0073386523509 -0.046641959596408 0)
(1.0086625270555 -0.04959381623805 0)
(1.0098835066433 -0.051996941719703 0)
(1.0116829985872 -0.055381202547496 0)
(1.0130882865006 -0.057404103410121 0)
(1.0157234793268 -0.061631587159832 0)
(0.99999924027775 -0.00068812889357153 0)
(0.99999791748846 -0.0021102188293469 0)
(0.99999650803583 -0.0035429659907225 0)
(0.99999575481051 -0.0049886726650113 0)
(0.99999689710744 -0.0064452899423308 0)
(1.0000010224284 -0.007919847665032 0)
(1.0000095155438 -0.0094344014292107 0)
(1.0000252239638 -0.011013704432328 0)
(1.0000524180007 -0.012670450033472 0)
(1.0000961771284 -0.014401921080211 0)
(1.0001612640128 -0.016193182109774 0)
(1.0002520517458 -0.018028624859913 0)
(1.0003717369961 -0.019896714747397 0)
(1.0005239404103 -0.021801282888105 0)
(1.0007114295954 -0.023751377424289 0)
(1.0009399999634 -0.025772042944601 0)
(1.0012137854101 -0.027872462060544 0)
(1.0015437406648 -0.030079616436473 0)
(1.0019336811659 -0.032373287683985 0)
(1.0024021880038 -0.034787692691338 0)
(1.0029456265531 -0.037255218234045 0)
(1.0035981275678 -0.039866898402051 0)
(1.0043326403136 -0.042462964723764 0)
(1.0052242844969 -0.045293736224743 0)
(1.0061833873629 -0.047958862026303 0)
(1.0073925644411 -0.051101950610661 0)
(1.0086022692868 -0.053700552444589 0)
(1.0102642781941 -0.05737465602118 0)
(1.0117567373904 -0.059566781321846 0)
(1.0142560498652 -0.064410557545419 0)
(0.99999899909957 -0.00068723692158865 0)
(0.99999342819474 -0.0021107176929844 0)
(0.99998410997737 -0.0035456462243487 0)
(0.99997065949627 -0.0049951387688152 0)
(0.99995483550018 -0.0064575893054459 0)
(0.99993826146785 -0.0079397160561521 0)
(0.99992205683378 -0.0094648896083185 0)
(0.99990872179525 -0.011059435109556 0)
(0.99990224475994 -0.01273714444429 0)
(0.99990730238528 -0.014495244284951 0)
(0.99992882264876 -0.01631825582366 0)
(0.99997112638017 -0.018189559217733 0)
(1.0000382462444 -0.020097946166379 0)
(1.0001335169362 -0.022047246396306 0)
(1.0002610042372 -0.024049225065524 0)
(1.0004247767724 -0.026129197493361 0)
(1.0006314563307 -0.02830128942372 0)
(1.0008876849329 -0.030589471804028 0)
(1.0012038768048 -0.032982033893594 0)