/*--------------------------------*- C++ -*----------------------------------*\
| =========                 |                                                 |
| \\      /  F ield         | OpenFOAM: The Open Source CFD Toolbox           |
|  \\    /   O peration     | Version:  2112                                  |
|   \\  /    A nd           | Website:  www.openfoam.com                      |
|    \\/     M anipulation  |                                                 |
\*---------------------------------------------------------------------------*/
FoamFile
{
    version     2.0;
    format      ascii;
    arch        "LSB;label=32;scalar=64";
    class       volScalarField;
    location    "16";
    object      p;
}
// * * * * * * * * * * * * * * * * * * * * * * * * * * * * * * * * * * * * * //

dimensions      [0 2 -2 0 0 0 0];

internalField   nonuniform List<scalar> 
22000
(
0.043545667580253
0.043522866050371
0.043475833688315
0.043403357542986
0.043304908480949
0.043180508045212
0.043030400851034
0.042854825567245
0.042653942099072
0.042427856236755
0.042176662372152
0.041900473405115
0.0415994277464
0.041273693504642
0.040923458782522
0.040548939256688
0.040150363404035
0.039727996470911
0.039282109629153
0.038813032802769
0.038321080886909
0.037806668847131
0.037270141641631
0.036712033160167
0.036132680914681
0.035532809675725
0.034912659120462
0.034273297037176
0.033614642504614
0.03293840082507
0.043971679684124
0.043947808456887
0.043899602542958
0.043825935817302
0.043726216734975
0.043600385254391
0.043448630329371
0.043271161096065
0.043068120206462
0.042839598304226
0.042585671454987
0.042306431912612
0.042001994305699
0.041672503504065
0.04131812145588
0.040939041028618
0.040535462450251
0.040107630322553
0.039655783393603
0.03918023608927
0.038681262676341
0.038159275189043
0.037614561504234
0.03704767954403
0.036458871354448
0.035848935971378
0.035217921251153
0.034567046556296
0.033895777214757
0.033205984025884
0.044750819043615
0.044726394108155
0.04467713796692
0.044602014905813
0.044500486890326
0.044372488328838
0.044218170518336
0.044037699797215
0.043831180477961
0.043598669062883
0.0433402062607
0.04305584718203
0.042745664024235
0.042409759051386
0.042048245578496
0.041661272533319
0.041248986361056
0.040811590811473
0.04034926366575
0.039862288662102
0.039350865596204
0.038815400395159
0.038256077176816
0.037673501615961
0.037067744706204
0.036439766505136
0.035789280136877
0.035117874738511
0.034424215329736
0.033710684233781
0.045828456290679
0.045803546470059
0.045753309152187
0.045676707122375
0.045573209686282
0.045442744109929
0.045285433710139
0.045101403443156
0.044890709706864
0.044653359281246
0.044389339397427
0.044098649663717
0.043781299840225
0.043437329343797
0.043066779339734
0.042669732372639
0.042246253736412
0.041796483706234
0.041320507513765
0.040818558840412
0.040290724938654
0.039737395455482
0.039158599617649
0.03855500154683
0.037926419480515
0.037274025107806
0.036597035906563
0.035897523440034
0.035172969668142
0.034426403224841
0.047156398868989
0.047131043405912
0.047079893413754
0.047001895521494
0.046896508729289
0.046763640055825
0.046603375802412
0.046415790425537
0.046200879907284
0.045958585293425
0.045688821112043
0.045391510677114
0.045066578137965
0.044713976335105
0.044333647319644
0.043925581063326
0.043489730549248
0.043026145369219
0.042534782147318
0.042015799090524
0.041469127546891
0.04089512253611
0.040293601344903
0.039665285181598
0.039009653686397
0.038328126900813
0.037619276343847
0.036885767221539
0.0361235825884
0.035336572140816
0.048691475949119
0.048665778652358
0.048613919975194
0.048534831690033
0.04842795803357
0.048293175496444
0.048130519746635
0.047939999682826
0.047721534289003
0.047474980627106
0.047200159763231
0.046896896134432
0.046565002861921
0.046204319702154
0.045814659624092
0.045395890263504
0.044947817451345
0.044470368242216
0.043963330171954
0.04342675452772
0.042860368668889
0.042264466868647
0.041638593841531
0.040983517478641
0.040298293958278
0.039584616475004
0.03884027117075
0.038068605594124
0.037263808799461
0.036430657767834
0.050394536944179
0.050368684920001
0.050316493510866
0.050236877528953
0.050129259548629
0.049993475281287
0.049829497118965
0.049637253983821
0.049416571340689
0.049167203653009
0.048888857094793
0.048581233545619
0.048244008231714
0.047876879328724
0.047479498511605
0.047051578387925
0.04659273977942
0.046102751189766
0.045581186734018
0.04502795346061
0.044442522222585
0.043825092360804
0.043174871315591
0.042492650948251
0.041776977039626
0.041029820823358
0.040248046123303
0.039435733567698
0.038584997049212
0.037701567242631
0.052229675624571
0.052203930844109
0.052151937973721
0.052072592340556
0.051965287695711
0.051829808495459
0.051666050780766
0.051473848895063
0.051252918789494
0.051002894609234
0.050723347045799
0.050413832167008
0.050073860430943
0.049702959118769
0.049300585110115
0.048866261074939
0.048399382689652
0.047899520286989
0.047365987025703
0.046798502708017
0.046196225112182
0.045559215433691
0.044886274941503
0.04417818303457
0.043432885903781
0.042652614721131
0.041833179592403
0.040979405852627
0.040081074662192
0.039144816672795
0.054163771224136
0.054138460691603
0.054087322874835
0.054009238870126
0.053903571010938
0.053770043766057
0.053608465065936
0.053418561340909
0.053199923430213
0.052952046877192
0.052674346118892
0.05236620887763
0.052026955295176
0.051655913471131
0.051252312702056
0.050815450280892
0.050344455805168
0.049838659285363
0.049297063465148
0.048719153026557
0.048103713346614
0.047450615913204
0.046758184216027
0.046027134211112
0.045254723507264
0.044443401343182
0.04358780164347
0.042693463060334
0.041747605142186
0.040757611188348
0.056166211414994
0.056141713686556
0.056092191459825
0.056016521292514
0.055914034987094
0.055784390038453
0.055627295115015
0.055442356408762
0.055229026790498
0.054986649090604
0.054714464016338
0.054411669454503
0.054077370445687
0.053710668997505
0.053310536251396
0.052876010265324
0.052405915189862
0.051899297982733
0.05135480149737
0.0507716239506
0.050148118156936
0.049483906733276
0.048776763186875
0.048027275256342
0.047231925225847
0.04639331263747
0.04550478497591
0.044572515136876
0.043580964170456
0.042538016984019
0.058208827982517
0.058185559876479
0.058138491852722
0.058066508864166
0.05796891548005
0.05784529720863
0.057695254676924
0.057518264279156
0.057313631037115
0.057080534003159
0.05681802697842
0.056525102136129
0.056200629227158
0.055843459510736
0.055452278087089
0.055025832544554
0.054562605811511
0.054061320856174
0.053520213846978
0.052938143762738
0.052312972163749
0.051644007699034
0.050928403473279
0.050166540459298
0.049354044089898
0.048493570153838
0.047577084329814
0.046611263586368
0.045577651036937
0.044484270990393
0.060265938951159
0.060244340561768
0.060200613505367
0.060133666377353
0.06004278215073
0.059927471927274
0.059787222546378
0.059621374674285
0.05942907979162
0.059209346673374
0.058961033876039
0.058682916841307
0.058373616277441
0.058031715152331
0.057655589967469
0.057243670164475
0.056794066568834
0.056305140816113
0.055774680927739
0.05520115507019
0.054581879386984
0.053915779380574
0.053199321996577
0.052432590990961
0.051610281381128
0.050734984364491
0.049797207836444
0.048803949993441
0.047733718488182
0.046594199657798
0.062314434632039
0.062294953447386
0.06225547031795
0.062194935174773
0.062112617130613
0.062007952942266
0.061880313503566
0.061728902227355
0.061552716413598
0.061350593562354
0.061121194652773
0.060863073641012
0.060574595053563
0.060254062820902
0.059899531450916
0.059509092211513
0.059080459527358
0.058611601355856
0.058099823542935
0.057543155542668
0.056938321699167
0.05628379419834
0.055575296169711
0.054812513352246
0.053989148623134
0.053107582584416
0.05215681198325
0.051143920550557
0.050044310791202
0.048864736739721
0.064333865527146
0.064316941028445
0.064282590229705
0.06422982362127
0.064157906192057
0.064066203280306
0.063953971453431
0.063820280094814
0.063663977261434
0.063483734229324
0.063278018779604
0.063045165762687
0.062783284334222
0.062490396672769
0.062164230578214
0.061802528535865
0.061402595579992
0.060961981004081
0.060477483691828
0.059946652199724
0.059365583433515
0.058732227979089
0.058041519680005
0.057292638889411
0.056478250182715
0.055600354130939
0.054646410286617
0.053623300490193
0.052503304520287
0.051291534989529
0.066306503724508
0.066292552971884
0.066264179306946
0.066220474629706
0.066160711135541
0.06608418808507
0.065990053198608
0.065877249918419
0.065744487672675
0.065590282830842
0.065412921418334
0.065210529153505
0.064980969240955
0.064721988355085
0.064430992952986
0.0641053757663
0.063742031042766
0.063338076245712
0.062889790868967
0.062394208125168
0.061846774874895
0.061244856620736
0.060582568129707
0.059858473847279
0.059064174877116
0.058201103873907
0.057255188874153
0.056232773353423
0.055103053721322
0.053868680187959
0.068217358496138
0.068206763974123
0.068185143882177
0.06815169278724
0.068105703366427
0.068046416645996
0.06797288039388
0.067883924757648
0.067778136584045
0.067653894701574
0.067509321776646
0.067342352073385
0.067150621046649
0.066931615434136
0.066682436318195
0.066400136425489
0.06608121009283
0.065722341264216
0.065319293519988
0.064868562088367
0.064364936482144
0.063805141078923
0.063182460076125
0.062494731904025
0.061732493395555
0.060896408190281
0.059970918887049
0.058961453582529
0.057834226632739
0.056588497588534
0.070054136922575
0.070047235284849
0.07003305500609
0.070010917581989
0.069980148635322
0.069939939233978
0.069889249658993
0.069826814119482
0.069751117933175
0.06966042510223
0.069552719496978
0.069425768896387
0.069277007811049
0.069103688116151
0.068902632003887
0.068670573065067
0.068403629191458
0.068098061791508
0.067749136633469
0.067352803132218
0.066903205227782
0.066396382020561
0.065824796359133
0.065185455001321
0.064467854469899
0.063671677887064
0.062779971881682
0.061796846211257
0.060685716270786
0.059441429624998
0.071807147741692
0.071804224120423
0.07179806908899
0.071788151634659
0.071773841801757
0.071754292799704
0.071728392555714
0.071694800100411
0.07165192498384
0.071597944249955
0.071530732810406
0.071447922773995
0.071346781520027
0.071224359925069
0.071077237782139
0.070901861975702
0.070694009560115
0.070449544172766
0.070163265834009
0.069830585763361
0.069445031073765
0.069001931174421
0.068492957927571
0.067914198632135
0.067254157959039
0.066511322265191
0.065667458953722
0.064724930444774
0.063644640156447
0.062415959746635
0.073469156781413
0.073470440523423
0.073472780463526
0.073475815249198
0.073478976383653
0.073481388590832
0.073481882829069
0.073479065472472
0.073471298967867
0.073456706132598
0.073433089064808
0.07339798128638
0.073348522319284
0.073281602037918
0.073193602031762
0.073080726175038
0.072938457590994
0.072762302182396
0.072546637787508
0.072286364832654
0.071974431123363
0.071605457897703
0.071170364550203
0.070664273307482
0.070074762935342
0.06939895963882
0.068617462528471
0.067730423972317
0.066696542446233
0.065498660930839
0.075035191338865
0.075040853572084
0.075052043320064
0.075068588911676
0.075089992816389
0.075115365614133
0.075143501238345
0.075172976680178
0.075202135153409
0.075229078423614
0.075251576578509
0.075267108673039
0.075272732705943
0.075265222574015
0.075240811425672
0.075195512322941
0.075124571386658
0.075023192822986
0.074885385852959
0.074705593427942
0.074476222378165
0.074191227732062
0.073840783373698
0.073419073101737
0.072912752114158
0.072317619413914
0.071613165759603
0.070797093056826
0.069825850073845
0.068674627340747
0.076502311926363
0.076512481259171
0.07653277694888
0.07656322425122
0.076603404124842
0.076652429816007
0.076709084322167
0.076771942882068
0.076839357875514
0.076909441233582
0.07697997251534
0.077048421543924
0.077111816489234
0.07716686535214
0.077209711798629
0.077236233626247
0.077241506140882
0.07722049622938
0.077166914389048
0.077074823761068
0.076936139696455
0.076744250463727
0.076488547203955
0.076162411375488
0.075751326267806
0.07525010657188
0.074636789745929
0.073907592903264
0.073015797969047
0.071928382107362
0.077869339213616
0.077884106356429
0.077913688420313
0.077958296275429
0.078017586921344
0.078090686755808
0.078176392320564
0.078273313230742
0.078379848151852
0.078494149834915
0.078614047192523
0.078737038463037
0.078860172500149
0.078980143378041
0.079093082142737
0.079194786402847
0.079280242359144
0.079344225940077
0.079380249956258
0.079382053245269
0.07934117121317
0.079250526498749
0.079098770924486
0.078878719065944
0.078574252404811
0.078179764959913
0.077670128430775
0.077042968935349
0.076245597543293
0.075243150353202
0.079136611785505
0.079155979198729
0.079194907622259
0.07925379962725
0.079332393008318
0.079429803551517
0.079544822993524
0.07967612912284
0.079822248976309
0.07998143213641
0.080151582111004
0.080330225931402
0.08051446662832
0.080701032101514
0.080886133898282
0.081065540281243
0.081234263878985
0.081386899440699
0.081516925801076
0.0816176903246
0.081680607475812
0.081697976688326
0.081658144482881
0.081553202756016
0.081365856440196
0.081090198731001
0.080695885242945
0.080183502143954
0.079485880676754
0.078590343015829
0.080305924094536
0.080329694079496
0.080377672532407
0.080450604110859
0.080548406126045
0.080670150289288
0.080814514682254
0.080980150508106
0.081165835460248
0.08137010501094
0.081590993010203
0.081826004833442
0.082072285452723
0.082326614092392
0.082585343653084
0.082844233206575
0.083098442155892
0.083342363612209
0.083569680361629
0.083773149684658
0.083944561426098
0.084074913218575
0.084153439968908
0.084169726713704
0.084108452603223
0.083959852609532
0.083695152750256
0.083308194568847
0.082712938213235
0.081908339030122
0.0813808262226
0.081408694449595
0.081464848549402
0.081550772943176
0.081666713570708
0.081811806950671
0.081984655944998
0.082183537850835
0.082407462475343
0.082655492445857
0.082925913964796
0.08321628426371
0.083523866596781
0.08384553939952
0.084177808144762
0.084516446965261
0.084856844407067
0.085193236042008
0.085519651756855
0.085828218563321
0.086111620328471
0.086359061518126
0.086562153087474
0.08670539477062
0.086780486487879
0.086764588938866
0.086651067079816
0.086401480952328
0.085974576424173
0.085199702868304
0.032286770005273
0.031663138077983
0.03102560406014
0.030375353003578
0.029713516082695
0.029040960592891
0.028358356022227
0.027666313751671
0.026965483513064
0.026256583792013
0.025540390161306
0.024817712605079
0.024089379563742
0.023356231793907
0.022619122110709
0.021878916657252
0.021136495113302
0.020392749139518
0.019648579672834
0.018904894185319
0.018162605687135
0.017422633761644
0.016685910191766
0.015953387020645
0.01522603103409
0.014504608052913
0.013789807133909
0.013082476861931
0.012383516905892
0.011693792460291
0.011014109207679
0.010345220511893
0.0096878368837478
0.009042634913799
0.0084102568087257
0.0077913119193444
0.0071863668340507
0.0065959516797074
0.0060205440480791
0.0054605894551921
0.0049164672406005
0.0043885393712337
0.0038770741383193
0.0033823596502691
0.0029045293013438
0.0024438214421864
0.002000177639925
0.0015738275465984
0.0011643490476561
0.00077191333380386
0.032544122458773
0.031913012866086
0.031265995192899
0.030605770263899
0.029934139815861
0.029251908582248
0.028559402415351
0.027856938466383
0.027145024205778
0.026424349515486
0.02569570397676
0.024959910156142
0.02421779856336
0.023470209821831
0.022718004046894
0.021962067355519
0.021203312848801
0.020442677186784
0.019681115264808
0.018919595327201
0.018159093199543
0.017400583722486
0.016645023788906
0.015893328444629
0.015146359871527
0.014405200184433
0.013671005908513
0.01294471849618
0.012227187573362
0.011519252966909
0.010821755441959
0.010135522962427
0.0094613538364914
0.0088000111761961
0.0081522118238724
0.0075186331425047
0.0068998976282009
0.0062965926922401
0.00570923641455
0.0051383253120156
0.0045842583815681
0.0040474496866027
0.0035281561274829
0.0030267379721314
0.0025432672631756
0.0020781263365384
0.0016311240957828
0.0012028820745697
0.00079289924178698
0.00040285161768149
0.033027625319091
0.032375005189739
0.031702012385326
0.031014772351679
0.030316723322046
0.029608715446461
0.028890502528648
0.028161920250451
0.027423297122898
0.026675359972318
0.025919001760449
0.025155125945282
0.024384605058865
0.023608301180128
0.022827095397647
0.02204190427505
0.021253681618697
0.020463410920249
0.019672095724382
0.018880752720905
0.018090408020759
0.017302095162968
0.016516856446882
0.015735750774183
0.014959865241422
0.014190243330588
0.013427878679956
0.012673763779676
0.011928866435059
0.011194128185306
0.010470464564773
0.0097587654730774
0.0090598828922329
0.0083746317086998
0.0077037730968087
0.0070480305544679
0.0064080603717735
0.0057844930618734
0.0051778663532896
0.0045887230040526
0.0040174588283845
0.0034645518414035
0.0029302141459006
0.002414922332333
0.001918621153077
0.0014419516498408
0.00098444991613587
0.00054744024348744
0.0001301423979366
-0.00026309297727184
0.033712026323555
0.033024977976442
0.032311230774444
0.031582362322585
0.030844258789503
0.030097723928403
0.029341570713147
0.028574889317259
0.027797746065156
0.02701092714599
0.026215469183696
0.02541237178937
0.024602538265867
0.023786828496533
0.022966119930921
0.022141338837429
0.021313463248285
0.020483510384921
0.019652522538733
0.018821559305637
0.017991695120604
0.017164017631046
0.016339623267199
0.015519609664813
0.014705063534096
0.013897064096868
0.013096686124926
0.012304986291778
0.011522999586693
0.010751737167925
0.0099921777237388
0.0092452690637453
0.0085119152154406
0.0077929862697681
0.0070892940293688
0.0064016211714116
0.0057306699766763
0.0050771347366416
0.0044415865780382
0.0038246445541241
0.0032267121373172
0.0026483758953537
0.0020898001352609
0.0015516506066317
0.0010337071422058
0.00053701391234894
6.0743977923889e-05
-0.00039267529639176
-0.00082427003186743
-0.0012253195717369
0.034582899891946
0.033850484681587
0.033083039980553
0.032299697896359
0.031509588425468
0.030713319008025
0.029908351522661
0.029092759400393
0.028266277150174
0.027429789008162
0.026584526457278
0.025731607271445
0.024871960504421
0.024006428586103
0.023135872010356
0.022261218801903
0.02138346717965
0.020503665252231
0.019622889918552
0.018742236509612
0.017862816563821
0.016985756286021
0.016112192094622
0.015243265621622
0.014380119307258
0.013523893933311
0.012675722885033
0.011836725737278
0.011007999977721
0.010190620068201
0.0093856270583042
0.008594033678993
0.0078168064911447
0.00705488374685
0.0063091390548451
0.0055804280655622
0.004869509477798
0.004177158772484
0.0035039896228127
0.0028507211772397
0.002217768386681
0.0016058634617724
0.001015112605714
0.00044643897527344
-0.00010058520839318
-0.00062436341762376
-0.0011261895084185
-0.0016021378024236
-0.0020535714899998
-0.0024659021530204
0.035631365312952
0.034843802159521
0.034010601929299
0.033160770700411
0.03230753008992
0.031451106162084
0.030587164992476
0.029712489572597
0.02882643118117
0.027930030858613
0.027024778639497
0.026111937545392
0.025192459523634
0.024267156730919
0.023336862410815
0.022402501455884
0.021465090663227
0.020525707726471
0.019585461748372
0.018645480609715
0.01770691043258
0.01677091617908
0.015838678137263
0.014911387407777
0.013990240441562
0.013076432714265
0.012171153199907
0.011275580184874
0.010390871903032
0.0095181674271907
0.0086585732299105
0.0078131721247164
0.00698299852098
0.0061690656787464
0.005372314229038
0.0045936817263369
0.0038339888059743
0.0030941053696066
0.0023746921654496
0.0016765891248844
0.0010002221772661
0.00034650395913534
-0.00028453233760611
-0.00089164122705839
-0.0014755087195321
-0.002033846248956
-0.0025685325846429
-0.0030737528346345
-0.0035512737636944
-0.0039789696914651
0.036851757138439
0.036000095313582
0.035089671366609
0.034161958470626
0.033235162257513
0.032308876726079
0.031376468179044
0.030433140954227
0.029477825643178
0.028511795112814
0.027536868510199
0.026554480291333
0.025565598804762
0.024570990431763
0.02357145042936
0.022567896324999
0.021561362562674
0.02055295592985
0.01954381630028
0.018535101970461
0.017527991602002
0.01652368712226
0.015523410427728
0.014528398350586
0.013539896216838
0.012559152377724
0.011587412271388
0.010625914421164
0.0096758798297869
0.0087385150800635
0.0078149953747102
0.0069064782665869
0.0060140706422865
0.0051388679437012
0.0042818844177213
0.0034441500482097
0.0026265548268279
0.0018300785353437
0.001055435781948
0.00030361059484555
-0.00042495862762827
-0.0011291410327294
-0.0018089907444357
-0.0024628713328052
-0.003091779511893
-0.0036925859816158
-0.0042678739478985
-0.0048095112353959
-0.005319707465705
-0.00576691919696
0.038241025797186
0.037317029388915
0.036318361454057
0.035301873297652
0.034291691318455
0.033286442605967
0.032276619031271
0.031255543660508
0.03022170732898
0.029176709682387
0.028122777394408
0.027061540420857
0.025993972732609
0.024920777676644
0.023842702499051
0.022760655132577
0.021675688757354
0.020588939857946
0.019501578174703
0.018414790478145
0.017329785642509
0.016247800304964
0.015170095914081
0.014097953546524
0.013032667064219
0.011975538199825
0.010927869808916
0.0098909623362879
0.0088661015745643
0.0078545645801708
0.0068575986153633
0.0058764407774706
0.004912275812819
0.0039662889887902
0.003039575041697
0.0021332675350501
0.0012483339375755
0.00038587977945161
-0.00045331946198698
-0.0012681119559865
-0.0020580454475019
-0.0028217319895745
-0.0035593276696311
-0.0042687322257013
-0.0049513048633213
-0.0056029152537044
-0.0062269668674106
-0.0068125521757514
-0.0073623417323693
-0.007833352427886
0.039797821689392
0.038793869021624
0.037696273195882
0.036580524202509
0.035477640166115
0.034384845425845
0.033289107447804
0.032181556997273
0.031060252226812
0.029927237327969
0.028785231745527
0.027636081916586
0.026480751958948
0.025319862948188
0.024154105523032
0.022984378277603
0.021811755934754
0.020637406221295
0.019462528065339
0.018288334766738
0.017116063458248
0.015946984053374
0.014782396610801
0.013623625904295
0.012472014070044
0.011328915853408
0.010195691446014
0.0090737041276188
0.0079643060837879
0.0068688470546408
0.0057886492713549
0.0047250337335346
0.0036792678609411
0.0026526338912143
0.0016463142375295
0.00066155665287331
-0.00030058565523751
-0.0012388656318571
-0.0021524388237791
-0.0030399612306121
-0.003900963546165
-0.0047337599964163
-0.0055386214583152
-0.0063129078627867
-0.007058394141794
-0.0077697822534578
-0.0084514201484323
-0.0090891395577014
-0.0096860727404136
-0.010185557333359
0.041521674257925
0.040430694285235
0.039223772800194
0.037998665041671
0.036794261871157
0.03560582590904
0.034416074739191
0.033213639816691
0.031996189592022
0.030766355860549
0.029527440068966
0.028281518546704
0.027029523582563
0.02577197386485
0.024509497033035
0.023242985329023
0.021973539666252
0.020702360971006
0.019430676645561
0.018159724727305
0.01689076885593
0.015625111045593
0.014364089405251
0.013109072065835
0.01186144896061
0.010622626484975
0.0093940205572489
0.0081770563206785
0.0069731528978816
0.0057837348682856
0.0046102024652269
0.0034539641691428
0.0023163747137409
0.001198819409254
0.00010257528317327
-0.00097098560770375
-0.0020207147963469
-0.0030452082238252
-0.004043542398221
-0.0050141564394432
-0.0059565573088759
-0.0068687187332304
-0.0077510337001476
-0.0086002407437572
-0.0094185758785266
-0.010199393996641
-0.010948105291615
-0.011646758697949
-0.012298927712664
-0.012831808109681
0.043412311439141
0.042227758799297
0.040901411944891
0.039557280475621
0.03824307999542
0.036951406090767
0.035659930334404
0.034354498829504
0.033032481744911
0.031697268478592
0.030352831368988
0.029001479321206
0.02764408309778
0.026281037959478
0.02491290603045
0.023540580007017
0.022165193057004
0.020787981208534
0.019410199095458
0.018033107272021
0.016657994295586
0.015286193516449
0.013919080896489
0.012558067810442
0.011204592635668
0.0098601108045433
0.0085260906084124
0.0072040165394288
0.0058953731850365
0.0046016595155968
0.0033243559410831
0.0020649616655729
0.00082492342074417
-0.00039426573488498
-0.0015912270443078
-0.0027644561219805
-0.0039126989188749
-0.0050343803855634
-0.0061284852418315
-0.0071932121469428
-0.0082280337065968
-0.0092305413437194
-0.010201252507072
-0.011136202914449
-0.012038127062726
-0.012898846186968
-0.013724926862389
-0.0144940675736
-0.015210170110333
-0.015781539198485
0.045469078248998
0.044184938441796
0.042729428274093
0.041257139949383
0.03982548333447
0.038423510475366
0.03702299382994
0.03560675432844
0.034172016424406
0.032723123038087
0.031264799686405
0.029799574669703
0.028328219599595
0.026850987243029
0.025368377052496
0.023881293561153
0.022390910247372
0.020898499552715
0.019405340363487
0.017912712027705
0.016421925304674
0.014934344486427
0.013451387728246
0.01197451577257
0.010505223200499
0.0090449917573101
0.0075953311306787
0.0061577868982515
0.0047339112283224
0.0033252762061528
0.0019334412428141
0.00055999534512981
-0.00079351899852479
-0.0021254979168385
-0.0034344537273041
-0.0047187447583743
-0.0059769999559888
-0.0072074630232214
-0.0084090107632101
-0.0095795807725423
-0.010718594677968
-0.011823220741226
-0.012894096623366
-0.013926471374334
-0.014923616706555
-0.015875634558284
-0.016790372818371
-0.017640623485916
-0.018430566130152
-0.0190467321796
0.047690443234232
0.046301259284383
0.044707319742319
0.043098418648395
0.041542378340997
0.040023637256258
0.038507180922972
0.036972642216447
0.035417328758277
0.033846755332696
0.032266466301855
0.030679175867629
0.029085511964002
0.027485570391272
0.025879799424311
0.024269132423286
0.0226547931332
0.02103809176451
0.019420327633999
0.017802791843208
0.016186805752821
0.014573749071891
0.012965075845406
0.011362343853384
0.0097672659190831
0.0081811136041881
0.0066054380849753
0.0050418656495921
0.0034920274623841
0.0019575743622315
0.00044014522515067
-0.0010585857162302
-0.0025369818558661
-0.0039933308353852
-0.0054260305538237
-0.0068333010717952
-0.0082136427860698
-0.0095651134318535
-0.010886462427025
-0.012175352002746
-0.013431128486096
-0.014650501336884
-0.015834214889775
-0.016976645532445
-0.018081637403565
-0.019137353152744
-0.020153054242547
-0.021095951048215
-0.021970396591424
-0.022637714513295
0.0500735923602
0.048574507896267
0.046833494828595
0.045080386856079
0.04339390203454
0.041752581733537
0.040113736558196
0.03845376325069
0.036770369072388
0.035070473782549
0.033360479450053
0.03164322694221
0.029919150634367
0.028188184630072
0.026450748262234
0.024707827193903
0.02296070781988
0.021210741323196
0.019459248789533
0.017707534533844
0.015956924969295
0.01420876652736
0.012464406139189
0.010725051570278
0.0089947642059713
0.0072725272824664
0.005560350043684
0.003860049836615
0.0021733406820743
0.00050195353049893
-0.0011523921151723
-0.0027879392258196
-0.0044029622575471
-0.0059956465942155
-0.0075642777838145
-0.0091069404325967
-0.010621999343919
-0.012107325933405
-0.013561524379848
-0.014981974023302
-0.016367915088797
-0.017715569985804
-0.019025756520302
-0.020291900068868
-0.0215184216333
-0.022691345461837
-0.023821468650077
-0.024869816490399
-0.025840943133006
-0.026567739476465
0.052614120133372
0.051000931611609
0.049105005337636
0.047201171814585
0.045379195893108
0.043610212721212
0.041843016129794
0.04005087531123
0.038232311043412
0.036395882076336
0.034548845599836
0.032694082347754
0.030831783159987
0.028961729223642
0.027084346135687
0.025200700553997
0.023312153232849
0.021420099313596
0.01952588651921
0.017630853845468
0.015736394447049
0.013844007553679
0.011955310554962
0.01007215886089
0.0081935524237797
0.0063238764683801
0.0044643297587005
0.0026164088545335
0.00078178430916147
-0.0010377922448432
-0.0028405538192171
-0.0046246702532321
-0.0063883391451405
-0.0081296469206563
-0.0098467803125035
-0.011537687319584
-0.013200606007643
-0.01483321510515
-0.01643397189914
-0.017999962490797
-0.019530300798471
-0.021020698484805
-0.022472008700815
-0.023876630868589
-0.025239528426384
-0.026544353260277
-0.027803388751097
-0.028970617448384
-0.030050059097258
-0.030841727453659
0.05530581649981
0.053575034267524
0.051517366470634
0.049457592920158
0.04749623976159
0.045595300469854
0.043694315939736
0.041763736127698
0.039803406867833
0.03782374163332
0.035832796104393
0.033833375890545
0.031825385972927
0.029808484579845
0.027783152073836
0.025750566689095
0.023712172227975
0.021669403409766
0.019623626648329
0.017576195709938
0.015528513874097
0.013482054682261
0.011438327184888
0.0093988351247122
0.0073648795838186
0.0053384599929234
0.0033212954202201
0.0013150879622773
-0.0006784343301256
-0.0026574765150721
-0.0046202341423524
-0.0065648062888368
-0.0084893348657327
-0.010391802025134
-0.01227032719407
-0.014122703713816
-0.015947084800616
-0.017740919507501
-0.019502564992697
-0.021228762246527
-0.022918534858822
-0.024567025147049
-0.026175131219246
-0.027734136719324
-0.029249579965342
-0.030702512504809
-0.032106961951015
-0.033409287090444
-0.034613527023777
-0.035483227986414
0.058140532183
0.056289461736529
0.05406447005438
0.05184507979162
0.049741751429362
0.047705396208817
0.045665748150327
0.043590988496908
0.041482887565093
0.039353880293995
0.037212693249031
0.0350619211104
0.032901163116748
0.030730013681952
0.028549071431664
0.026359657297871
0.024163301971503
0.021961476023382
0.019755562137635
0.01754693085553
0.015337002507887
0.013127261454719
0.010919230290569
0.0087144624202464
0.0065145144767299
0.0043210917121236
0.0021359267431398
-3.9224257000026e-05
-0.002202608825551
-0.004352397310907
-0.0064867677813131
-0.0086037606889729
-0.010701498969254
-0.012777857359136
-0.014830941098962
-0.016858354441608
-0.018858254852744
-0.02082777376146
-0.02276530662129
-0.024667092799751
-0.026532245018733
-0.028355130695878
-0.030136863846517
-0.031867406422283
-0.033553018965342
-0.03517188209678