/*--------------------------------*- C++ -*----------------------------------*\
| =========                 |                                                 |
| \\      /  F ield         | OpenFOAM: The Open Source CFD Toolbox           |
|  \\    /   O peration     | Version:  2112                                  |
|   \\  /    A nd           | Website:  www.openfoam.com                      |
|    \\/     M anipulation  |                                                 |
\*---------------------------------------------------------------------------*/
FoamFile
{
    version     2.0;
    format      ascii;
    arch        "LSB;label=32;scalar=64";
    class       surfaceScalarField;
    location    "16";
    object      phi;
}
// * * * * * * * * * * * * * * * * * * * * * * * * * * * * * * * * * * * * * //

dimensions      [0 3 -1 0 0 0 0];

oriented        oriented;

internalField   nonuniform List<scalar> 
43645
(
0.3951240239068
-5.1508537297062e-06
0.3951393446189
-1.5320725199411e-05
0.39516468609571
-2.534149100373e-05
0.39519998850889
-3.5302427843243e-05
0.39524520548777
-4.5216993610017e-05
0.39530029157676
-5.5086103564376e-05
0.39536519878414
-6.4907221675306e-05
0.39543987677123
-7.4678001041048e-05
0.39552427176237
-8.4395004720046e-05
0.39561833019997
-9.405845079806e-05
0.39572199344128
-0.00010366325412272
0.39583520203453
-0.00011320860566506
0.39595788342776
-0.00012268140524196
0.39608996588678
-0.00013208247065971
0.39623135416714
-0.00014138829162247
0.39638196395491
-0.00015060979866841
0.39654166701835
-0.00015970307401248
0.39671037367236
-0.00016870666425505
0.39688790942335
-0.00017753576095281
0.39707420749203
-0.00018629807839189
0.39726902095546
-0.0001948134729043
0.39747236106746
-0.00020334012128553
0.39768382515542
-0.00021146409708421
0.39790360493748
-0.00021977979104199
0.39813093953864
-0.0002273346100602
0.39836644930894
-0.00023550977911336
0.39860858470632
-0.00024213540616566
0.39885901033023
-0.00025042563255921
0.39911444165577
-0.00025543133402954
-0.00026453027345577
0.39937897192064
0.37294733415575
-9.9302893405732e-06
0.37296160369338
-2.9590285447873e-05
0.37298540666906
-4.9144489740096e-05
0.3730186821626
-6.8577944412261e-05
0.37306138262896
-8.7917482703889e-05
0.37311346950879
-0.00010717300569315
0.37317490537404
-0.00012634310873976
0.37324565177931
-0.00014542442761336
0.37332566769128
-0.00016441093745794
0.37341491293746
-0.00018330371719398
0.37351334267819
-0.00020209301452064
0.37362091147292
-0.00022077741951779
0.37373756128427
-0.00023933123517456
0.37386323553205
-0.00025775673647369
0.37399785540547
-0.00027600818256308
0.37414135394603
-0.00029410835625659
0.37429362205419
-0.00031197119874786
0.37445458943079
-0.00032967405699011
0.37462410308028
-0.00034704942618763
0.37480211592472
-0.00036431093821984
0.37498840412347
-0.00038110168675227
0.37518299629738
-0.00039793231002285
0.37538551577946
-0.00041398359377116
0.37559616672106
-0.00043043074706933
0.37581422430129
-0.0004453922046008
0.37604031185972
-0.00046159735174659
0.37627294395791
-0.00047476751850556
0.37651376540083
-0.00049124708940799
0.37675962569006
-0.00050129163672019
-0.00051947151552803
0.37701456691833
0.35201553356561
-1.456635168944e-05
0.35202932965274
-4.3386395761781e-05
0.35205220934129
-7.2024201606948e-05
0.35208413000438
-0.00010049863057902
0.35212506009117
-0.00012884759211894
0.35217497134108
-0.00015708427769033
0.3522338361703
-0.00018520795946421
0.35230162904874
-0.00021321732695089
0.35237832540644
-0.00024110731544162
0.35246390419374
-0.0002688825241589
0.35255834055473
-0.00029652939453901
0.35266160974926
-0.00032404663245486
0.35277367446719
-0.00035139597090266
0.35289450071493
-0.00037858300142352
0.35302403276726
-0.00040554025154919
0.35316223040476
-0.00043230600988321
0.35330901061414
-0.00045875142378377
0.35346433459017
-0.00048499804823637
0.35362807581347
-0.00051079066433074
0.35380022219229
-0.00053645733154399
0.35398057065864
-0.00056145016734384
0.35416918852429
-0.00058655018969615
0.35436570669462
-0.00061050177796972
0.3545703796059
-0.00063510367209702
0.35478246579572
-0.00065747840812622
0.35500266947122
-0.00068180104092879
0.35522943584947
-0.00070153391047788
0.35546455528603
-0.00072636653955058
0.3557046833895
-0.00074141975337336
-0.0007689073702528
0.35595411923061
0.33225851305454
-1.9035466433294e-05
0.33227179971846
-5.6673081195532e-05
0.33229379490614
-9.4019410922915e-05
0.3323244531511
-0.00013115689695486
0.33236375053121
-0.00016814499323178
0.33241167042555
-0.00020500419255483
0.33246819861228
-0.00024173616619741
0.33253332584516
-0.00027834457927675
0.33260704747274
-0.00031482896191315
0.33268936573601
-0.00035120080575142
0.33278028045515
-0.00038744413143467
0.33287979290239
-0.00042355909687407
0.33298789192583
-0.00045949501096515
0.33310457239132
-0.0004952634829852
0.3332298079435
-0.00053077581929288
0.33336359292346
-0.0005660910049244
0.33350587761613
-0.0006010361310994
0.3336566644001
-0.0006357848464454
0.33381586035088
-0.00066998662900988
0.33398349970292
-0.00070409669717946
0.33415940468634
-0.00073735516411641
0.33434369466402
-0.00077084018052364
0.33453600659167
-0.00080281371863961
0.33473666436273
-0.00083576145606728
0.33494489799004
-0.00086571204830409
0.33516152887102
-0.0008984319347533
0.33538490408688
-0.00092490913922748
0.33561704121978
-0.00095850368517667
0.33585434574636
-0.00097872429229255
-0.0010161503415179
0.33610158870484
0.31361035711529
-2.3335220064359e-05
0.31362312518423
-6.9441169568432e-05
0.31364422920171
-0.00011512344784774
0.31367362636064
-0.00016055407504554
0.3137113012652
-0.00020581991652727
0.31375724924304
-0.00025095218862063
0.31381147094962
-0.00029595789047729
0.31387397629106
-0.00034084993786479
0.31394478434865
-0.00038563703608003
0.31402392514958
-0.0004303416226939
0.31411142798886
-0.00047494698617088
0.3142073253426
-0.00051945646549947
0.31431163756527
-0.00056380724798616
0.31442439443568
-0.00060802036722284
0.31454560519475
-0.00065198659171161
0.31467530613812
-0.00069579196120276
0.31481348796696
-0.00073921797246374
0.31496020313151
-0.00078250002316402
0.31511539967952
-0.00082518318891559
0.3152791686082
-0.00086786563749832
0.31545136378459
-0.00090955035198228
0.31563216924207
-0.00095164564932263
0.31582123138347
-0.00099187587131259
0.31601896088075
-0.0010334909645725
0.31622455639776
-0.0010713075765751
0.31643898408815
-0.001112859636432
0.31666047545148
-0.0011464005139721
0.31689132149452
-0.0011893497395457
0.31712762173561
-0.0012150245444076
-0.0012632253636701
0.31737469674623
0.29600882149571
-2.7454872615099e-05
0.29602103770886
-8.1657400517624e-05
0.29604119287672
-0.0001352786334826
0.2960692493613
-0.00018861057712827
0.29610520239059
-0.00024177296293689
0.29614906085501
-0.00029481066971391
0.29620084205506
-0.00034773910672398
0.29626057755803
-0.00040058545654236
0.29632831350128
-0.00045337299454511
0.2964041116741
-0.00050613981021331
0.29648803513602
-0.00055887046227724
0.29658015217945
-0.00061157352261267
0.29668051949059
-0.00066417457231553
0.29678920719562
-0.00071670808496339
0.29690626592568
-0.00076904533405979
0.29703178069883
-0.00082130674620424
0.29716578956874
-0.00087322685388341
0.29730840328613
-0.00092511375172942
0.29745961854702
-0.00097639846072214
0.29761959262228
-0.0010278397234196
0.29778821849352
-0.0010781762337266
0.29796575562056
-0.0011291827867105
0.29815186586134
-0.0011779861223705
0.29834705950209
-0.0012286846155224
0.29855050655954
-0.0012747546442442
0.29876333493941
-0.001325688026508
0.29898365598742
-0.001366721572277
0.29921405959431
-0.001419753356606
0.29945032044912
-0.0014512854090943
-0.0015112535338888
0.29969834860899
0.27939515362534
-3.137399257309e-05
0.27940675196638
-9.3255756956977e-05
0.2794258530023
-0.00015437968473258
0.27945242445163
-0.00021518204151815
0.27948647316521
-0.00027582169120943
0.27952802278855
-0.00033636030732251
0.27957710858228
-0.00039682491429102
0.27963378553625
-0.0004572624238804
0.27969812915766
-0.00051771662887406
0.27977023591781
-0.00057824658279868
0.27985020600953
-0.00063884056597429
0.27993814729907
-0.00069951482365964
0.28003415690562
-0.00076018418993054
0.280138349924
-0.00082090111397267
0.28025082349825
-0.0008815189185654
0.28037171722127
-0.00094220047910593
0.28050112289186
-0.0010026325340468
0.28063921675111
-0.0010632076202627
0.28078605168563
-0.0011232334043148
0.28094185950706
-0.0011836475537105
0.281106580598
-0.0012428973334216
0.28128055880633
-0.0013031610036757
0.28146348024093
-0.0013609075655723
0.28165596431001
-0.0014211686931646
0.28185716193239
-0.0014759522752373
0.28206837271957
-0.0015368988223279
0.28228759918948
-0.0015859480509297
0.28251773961223
-0.0016498937880358
0.2827542592968
-0.0016878051021255
-0.0017606595575394
0.2830036653115
0.26371390179303
-3.5066348531623e-05
0.26372479598602
-0.00010414996354022
0.26374270712762
-0.00017229083985804
0.26376760692047
-0.0002400818476573
0.26379951403132
-0.00030772881504586
0.26383846776425
-0.00037531405287897
0.26388452250663
-0.00044287966894502
0.26393775777538
-0.00051049770451375
0.26399827979684
-0.00057823866183571
0.2640662214171
-0.00064618821415066
0.26414172204162
-0.000714341201191
0.26422493157899
-0.00078272437131726
0.26431599059987
-0.00085124322072075
0.26441506267888
-0.00091997320249931
0.26452229567855
-0.00098875192742015
0.26463788844841
-0.00105779325781
0.26476199213934
-0.0011267362335518
0.26489485435504
-0.0011960698442607
0.26503659135898
-0.0012649704163614
0.26518751627324
-0.0013345724758682
0.26534762586896
-0.0014030069369278
0.26551735538836
-0.0014728905307192
0.26569642677325
-0.0015399789580721
0.2658855746122
-0.00161031653964
0.26608394712312
-0.0016743247937129
0.26629301787651
-0.0017459695832435
0.26651070644684
-0.0018036366288774
0.26674021055931
-0.0018793979080031
0.26697673187762
-0.0019243264277454
-0.0020112660045847
0.26722733831694
0.24891272812002
-3.8501789479273e-05
0.24892282697351
-0.00011424882849184
0.24893939981616
-0.00018886369389377
0.24896242265161
-0.00026310469428263
0.24899192581056
-0.00033723198491886
0.24902796399303
-0.00041135224596605
0.24907061066319
-0.00048552634941236
0.24911997040094
-0.00055985745224422
0.24917618109116
-0.00063444936171228
0.24923941279753
-0.00070941992981803
0.24930984498511
-0.00078477339774325
0.24938767079791
-0.0008605501927366
0.24947307597903
-0.00093664841014195
0.24956627462036
-0.0010131718517927
0.24966746823707
-0.0010899455518187
0.24977691808659
-0.0011672431147202
0.24989483917328
-0.0012446573274251
0.25002155462798
-0.0013227853058808
0.25015725057267
-0.0014006663678425
0.25030232623314
-0.0014796481429379
0.25045684409061
-0.0015575248009275
0.25062133522706
-0.0016373816735646
0.25079557147505
-0.0017142152124634
0.25098040433931
-0.0017951494102198
0.25117500213645
-0.0018689225972412
0.25138100564458
-0.0019519730977309
0.25159629182511
-0.0020189228158683
0.25182432902885
-0.0021074351181245
0.25206013252634
-0.002160129931478
-0.0022623847486683
0.25231125126378
0.23494223579588
-4.1650034740967e-05
0.23495144937095
-0.00012346241340233
0.23496653611701
-0.0002039504497381
0.23498747653573
-0.00028404512261991
0.23501431225675
-0.0003640677153539
0.23504711281081
-0.00044415280919615
0.23508597010717
-0.00052438365471902
0.23513101296267
-0.00060490031641376
0.23518241001823
-0.00068584642570381
0.23524036806825
-0.0007673779879617
0.23530510682016
-0.00084951215752531
0.23537686250032
-0.00093230588046446
0.2354558661601
-0.0010156520772397
0.23554238287673
-0.0010996885754409
0.23563666922968
-0.0011842319115682
0.23573905014196
-0.0012696240335219
0.2358498074989
-0.0013554146907216
0.23596934202032
-0.0014423198334106
0.23609791509407
-0.0015292394475789
0.23623601441808
-0.0016177474727566
0.2363837774211
-0.0017052878096845
0.2365418323611
-0.0017954366191652
0.23671001696232
-0.0018823998192774
0.23688929645628
-0.0019744289096796
0.23707888806746
-0.0020585142139619
0.23728058349532
-0.00215366853108
0.23749227144744
-0.0022306107735658
0.23771764205984
-0.0023328057359936
0.23795163247107
-0.0023941203480764
-0.0025129023868574
0.23820215010355
0.22175580275547
-4.4483008051941e-05
0.22176404841923
-0.00013170808539586
0.22177751326783
-0.00021741530652772
0.22179618211403
-0.00030271397687105
0.22182010708934
-0.00038799269857435
0.22184937137808
-0.0004734171056507
0.22188408391908
-0.00055909620326135
0.22192439608006
-0.00064521248471649
0.22197050546912
-0.00073195582189736
0.22202265350371
-0.00081952602945054
0.22208109803026
-0.00090795669078635
0.22214611684668
-0.00099732470332916
0.22221798567442
-0.0010875209112388
0.22229701906008
-0.001178721967096
0.22238352828313
-0.0012707411404452
0.22247790111952
-0.0013639968755031
0.2225804876021
-0.0014580011787585
0.22269176563857
-0.0015535978751173
0.22281207580782
-0.0016495496219797
0.22294199381707
-0.0017476654869783
0.22308174072234
-0.0018450347198874
0.22323203973867
-0.0019457356402942
0.2233928119238
-0.0020431720092207
0.22356512768621
-0.0021467446768063
0.22374828720683
-0.0022416737393641
0.22394420705656
-0.0023495883855306
0.22415085519467
-0.0024372589165058
0.22437207487629
-0.0025540254223304
0.22460286260576
-0.0026249080822215
-0.0027613600876224
0.22485132030156
0.20930942567328
-4.6976738001322e-05
0.20931663356779
-0.00013891598691662
0.20932836208554
-0.00022914383128041
0.20934459984599
-0.00031895174422775
0.20936540817572
-0.00040880103510706
0.20939088212837
-0.00049889106495828
0.20942114557307
-0.00058935965450111
0.20945636985168
-0.00068043676970082
0.20949677863119
-0.00077236460766063
0.20954264463069
-0.00086539203500019
0.20959426062679
-0.00095957269280273
0.20965194242541
-0.0010550065076527
0.20971600735596
-0.0011515858473497
0.20978681691376
-0.0012495315302315
0.20986473520144
-0.0013486594333224
0.20995020957612
-0.0014494712551682
0.21004365758292
-0.0015514491904287
0.21014563127575
-0.0016555715726126
0.2102565525677
-0.0017604709185217
0.21037708160116
-0.001868194524854
0.21050753072982
-0.0019754838529222
0.21064871206073
-0.0020869169754351
0.21080064815332
-0.0021951081060609
0.2109645004606
-0.0023105969882143
0.21113969045902
-0.0024168637419806
0.21132822378779
-0.0025381217184175
0.21152822652488
-0.0026372616578192
0.21174360748431
-0.0027694063858883
0.21196958623685
-0.0028508868388601
-0.0030060304395391
0.21221425658441
0.19756157259096
-4.9112804630626e-05
0.19756768994709
-0.00014503334904436
0.197577596134
-0.00023905002419414
0.19759128280614
-0.00033263842229665
0.19760881880684
-0.00042633704168831
0.1976303087832
-0.00052038104708671
0.19765588881353
-0.0006149396905227
0.19768574683059
-0.00071029479233489
0.19772012867888
-0.00080674646143171
0.19775933387906
-0.00090459724050141
0.19780368564341
-0.0010039244623869
0.19785353294714
-0.0011048538164312
0.19790923035583
-0.001207283260994
0.19797118104871
-0.0013114822278662
0.19803979832849
-0.0014172767177543
0.19811558446728
-0.0015252573984013
0.19819902160599
-0.0016348863335029
0.19829073018753
-0.0017472801583142
0.19839121363012
-0.001860954365211
0.19850120971495
-0.0019781906135897
0.19862112828344
-0.0020954024253015
0.19875186031646
-0.0022176490121808
0.1988935480556
-0.0023367958489529
0.19904742431807
-0.0024644732543039
0.19921307314738
-0.0025825125749988
0.19939254430875
-0.0027175928834065
0.19958420995613
-0.0028289273089396
0.19979193970307
-0.0029771361364887
0.20001136182184
-0.0030703089613062
-0.0032449938970798
0.20025032527546
0.18647304383777
-5.0879277375163e-05
0.18647803763192
-0.0001500271484839
0.18648606838774
-0.00024708078534456
0.18649712986894
-0.00034369990878198
0.18651129641496
-0.00044050359295712
0.1865286796114
-0.00053776424870145
0.1865494245292
-0.00063568461345475
0.18657373169512
-0.0007346019632785
0.18660186443931
-0.00083487921058983
0.18663414362855
-0.00093687643458271
0.18667091733569
-0.0010406981742952
0.18671256160963
-0.0011464980949946
0.18675946258752
-0.0012541842434219
0.18681205859154
-0.0013640782362424
0.18687080638513
-0.0014760245156242
0.18693625576512
-0.0015907067824814
0.18700894947111
-0.0017075800434973
0.18708956793456
-0.0018278986255564
0.18717869405415
-0.0019500804885414
0.18727713331794
-0.0020766298809088
0.1873853974043
-0.002203666515155
0.18750444228659
-0.0023366938977904
0.18763454708499
-0.0024669006506784
0.18777699107478
-0.002606917247286
0.18793156362417
-0.0027370851276504
0.1881003056003
-0.0028863348627193
0.18828192940154
-0.0030105511135106
0.18848014629062
-0.0031753530288269
0.18869119523934
-0.0032813579133484
-0.0034762136712217
0.18892241500991
0.17600684065114
-5.2271173016211e-05
0.1760106989163
-0.000153885418466
0.17601683612661
-0.00025321800053606
0.17602524705483
-0.00035211084185883
0.1760360093806
-0.00045126592355622
0.17604923878583
-0.00055099365869004
0.17606508579
-0.00065153162235374
0.17608375911465
-0.00075327529254958
0.17610553429266
-0.00085665439316861
0.17613074741212
-0.0009620895584966
0.17615976497563
-0.001069715742194
0.17619298306588
-0.0011797161894837
0.17623081263173
-0.0012920138134555
0.17627371927606
-0.0014069848845827
0.17632219626668
-0.0015245015101821
0.17637683179507
-0.0016453423146094
0.17643822234147
-0.0017689705935624
0.17650709836508
-0.0018967746526213
0.1765841182027
-0.0020271003295243
0.17667014217784
-0.0021626538591951
0.17676578601635
-0.0022993103567577
0.17687205335443
-0.0024429612387562
0.17698937555121
-0.0025842228503389
0.17711904881475
-0.0027365905135538
0.17726110985227
-0.0028791461679727
0.17741753098519
-0.0030427559983671
0.17758746202769
-0.0031804821589032
0.17777432616891
-0.0033622171729304
0.17797518487675
-0.0034822166241987
-0.0036976099866117
0.17819658118884
0.16612804128967
-5.3290486930595e-05
0.16613077300177
-0.00015661713516053
0.16613503331534
-0.00025747831874927
0.16614081687885
-0.0003578944099888
0.16614820254235
-0.00045865159162933
0.16615730710724
-0.00056009822807759
0.16616828288749
-0.00066250740702354
0.16618134220925
-0.00076633461860276
0.16619676722323
-0.00087207941136421
0.16621490271932
-0.00098022505865743
0.16623612665817
-0.0010909396850407
0.16626084754678
-0.0012044370819311
0.16628949357416
-0.0013206598446027
0.16632254888673
-0.0014400402007404
0.16636053510792
-0.0015624877348949
0.16640406844514
-0.001688875655149
0.16645379087007
-0.001818693021725
0.16651047022763
-0.00195345401317
0.16657483419343
-0.0020914642982166
0.16664778338525
-0.0022356030536539
0.16673003690397
-0.0023815638780248
0.16682262625668
-0.0025355505937767
0.16692614768266
-0.0026877442785954
0.16704188163275
-0.0028523244657359
0.16717015114824
-0.0030074156856234
0.16731279532927
-0.0031854001815091
0.16746949650725
-0.0033371833392093
0.16764325447711
-0.0035359751451604
0.1678321675644
-0.0036711297141133
-0.0039071301684684
0.16804168774326
0.15680368396689
-5.394576800308e-05
0.15680531783725
-0.00015825101005931
0.15680775052564
-0.0002599110117003
0.15681097580832
-0.00036111969716011
0.15681507128962
-0.00046274707731835
0.15682015198091
-0.00056517892359846
0.15682636842622
-0.00066872385642518
0.15683393199966
-0.00077389819593122
0.15684312590766
-0.00088127332309256
0.15685429701673
-0.00099139617125419
0.15686782755148
-0.0011044702231875
0.15688413053729
-0.0012207400709323
0.15690364334093
-0.0013401726513461
0.15692685953222
-0.001463256394945
0.15695432000617
-0.0015899482116607
0.15698665798774
-0.0017212136393298
0.15702455111456
-0.0018565861510371
0.15706879143802
-0.0019976943388741
0.15712016679617
-0.0021428396584708
0.15717960231185
-0.0022950385711418
0.15724791661914
-0.0024498781869908
0.1573261482903
-0.0026137822663364
0.15741506641102
-0.0027766624006287
0.15751590296979
-0.0029531610256204
0.15762930110225
-0.0031208138192616
0.15775690107155
-0.0033130001519484
0.15789900390865
-0.0034792861777332
0.1580580480205
-0.0036950192586075
0.15823337616352
-0.0038464578591518
-0.0041028120429759
0.15842905803548
0.14800265661305
-5.4251455374507e-05
0.1480032397564
-0.00015883415815546
0.14800392333958
-0.00026059459958124
0.14800469967032
-0.00036189603241614
0.14800564378435
-0.00046369119562349
0.14800686620264
-0.00056640134586635
0.14800851219394
-0.0006703698514041
0.14801078766992
-0.00077617367524363
0.14801397151494
-0.00088445717115595
0.1480184063121
-0.00099583097114031
0.14802447159824
-0.0011105355118183
0.14803257718458
-0.0012288456595055
0.14804316136465
-0.0013507568334944
0.14805671801601
-0.0014768130481584
0.14807379739829
-0.0016070275956812
0.14809503887444
-0.001742455116984
0.14812114416383
-0.0018826914417919
0.14815291693726
-0.0020294671133815
0.14819119294076
-0.0021811156628833
0.1482369075495
-0.002340753180454
0.14829096831995
-0.0025039389578194
0.14835440397935
-0.0026772179257828
0.14842815364772
-0.0028504120689029
0.14851337396866
-0.0030383813462387
0.14861104986981
-0.003218489720127
0.14872256858761
-0.0034245188694692
0.14884892155179
-0.0036056391419836
0.14899184917495
-0.0038379468821839
0.14915212335068
-0.0040067320359777
-0.0042828336947091
0.14933214500056
0.13969559257333
-5.4226773592411e-05
0.13969518543547
-0.00015842702581921
0.13969422297047
-0.00025963213999687
0.13969269469547
-0.00036036776244721
0.13969067107169
-0.00046166757640493
0.13968825595477
-0.00056398623294369
0.13968558654871
-0.00066770044881387
0.1396828591668
-0.00077344629623096
0.13968034316163
-0.00088194116839115
0.1396783705782
-0.00099385838963007
0.13967731171938
-0.0011094766545526
0.13967756612665
-0.0012291000679778
0.13967956528742
-0.0013527559952421
0.13968379480085
-0.0014810425622909
0.13969080394137
-0.0016140367367392
0.13970122802714
-0.0017528792030467
0.13971577938137
-0.0018972427961316
0.13973526271406
-0.0020489504458784
0.13976054442504
-0.0022063973734464
0.1397925618835
-0.0023727706380984
0.13983229029645
-0.0025436673697064
0.13988074453425
-0.002725672162107
0.13993900817478
-0.0029086757077483
0.14000815843165
-0.0031075316011217
0.14008950100145
-0.0032998322879521
0.14018415719567
-0.0035191750617283
0.14029384371195
-0.0037153256567218
0.14041951531597
-0.003963618485187
0.14056350732656
-0.0041507240465309
-0.0044455570614547
0.1407262306923
0.13185477295467
-5.3895004684584e-05
0.13185344834579
-0.00015710242455916
0.13185096245672
-0.00025714625852004
0.13184730133666
-0.00035670664936351
0.13184252895696
-0.00045689520286191
0.13183674058384
-0.000558197865091
0.13183006352824
-0.00066102339761793
0.13182268131266
-0.00076606408419796
0.13181484923808
-0.0008741090966237
0.13180688260613
-0.00098589175981315
0.13179913634962
-0.0011017303996631
0.13179199304833
-0.0012219567678495
0.13178587073209
-0.0013466336798435
0.13178123849478
-0.0014764103255073
0.13177863509174
-0.0016114333340207
0.13177868194114
-0.0017529260524734
0.13178208800298
-0.0019006488577807
0.13178965019377
-0.0020565126361405
0.1318022434824
-0.0022189906612462
0.1318208069097
-0.0023913340641122
0.13184634593313
-0.0025692063914972
0.13187988552549
-0.0027592117523217
0.13192258483188
-0.0029513750116613
0.13197550689702
-0.0031604536633758
0.13204014600715
-0.003364471395091
0.13211746301856
-0.0035964920701083
0.13220974494393
-0.0038076075794681
0.13231731991715
-0.0040711934564304
0.13244407985242
-0.004277483981013
-0.0045896451373165
0.13258816792778
0.12445403191018
-5.3280584704802e-05
0.12445186910804
-0.00015493963463218
0.12444799600496
-0.00025327316799951
0.12444239416267
-0.00035110481890796
0.12443511888162
-0.00044961993253039
0.12442625486615
-0.00054933385906017
0.12441591783929
-0.00065068637898279
0.12440427621617
-0.00075442246817153
0.12439156763725
-0.00086140052381073
0.12437808494452
-0.00097240907234966
0.12436416327441
-0.0010878087341684
0.12435016212381
-0.0012079556213064
0.12433648096243
-0.00133295252214
0.12432356319271
-0.001463492559089
0.12431193055957
-0.0015998007039197
0.12430217848953
-0.0017431739851351
0.1242950027381
-0.0018934731087705
0.12429117920339
-0.0020526891034428
0.12429157310459
-0.0022193845640665
0.12429712275425
-0.0023968837148172
0.12430881954384
-0.0025809031816252
0.12432774202156
-0.0027781342299036
0.12435500807249
-0.00297864106192
0.12439184520045
-0.0031972907900646
0.12443962968924
-0.0034122558822604
0.12449958362595
-0.0036564460049354
0.12457381170896
-0.0038818356607936
0.12466284862692
-0.0041602303732324
0.12477133032798
-0.0043859656820602
-0.0047145555628632
0.12489624075222
0.11746867199852
-5.2408819381719e-05
0.11746575239919
-0.00015202005562292
0.11746063520266
-0.00024815599264155
0.11745329511185
-0.00034376474860208
0.11744377833206
-0.00044010317191203
0.11743215852339
-0.00053771406804411
0.11741853660785
-0.0006370644796113
0.11740306388606
-0.0007389497612048
0.1173859570852
-0.00084429373664749
0.11736748080327
-0.00095393280317625
0.11734794835375
-0.001068276296674
0.1173276914143
-0.0011876986932889
0.11730708752726
-0.0013123486460743
0.11728654393567
-0.0014429489780707
0.11726656380757
-0.0015798205860544
0.11724770001925
-0.0017243102066724
0.11723063680784
-0.0018764099068192
0.11721610093173
-0.0020381532362878
0.11720495431662
-0.0022082379573449
0.11719809778233
-0.0023900271881901
0.11719650806045
-0.0025793134666142
0.11720130357567
-0.0027829297510714
0.11721348208754
-0.0029908195788479
0.11723460284974
-0.0032184115564036
0.11726553789964
-0.003443190935498
0.11730864680271
-0.0036995549106614
0.11736429465816
-0.003937483518494
0.11743548390823
-0.004231419625585
0.11752316266605
-0.004473644442686
-0.0048216724013202
0.11763027950063
0.11087538609769
-5.1310042683228e-05
0.11087179767761
-0.0001484316668362
0.11086558484313
-0.00024194319073798
0.11085670972621
-0.0003348896635852
0.11084521499476
-0.00042860847094468
0.11083116900756
-0.00052366810966806
0.11081465266998
-0.00062054816927657
0.11079579222623
-0.00072008934331751
0.11077478014522
-0.0008232816803691
0.11075185151829
-0.00093100420004454
0.11072730005605
-0.0010437248575394
0.11070142595511
-0.0011618246148501
0.11067458083471
-0.0012855035477293
0.11064712674011
-0.0014154949050857
0.11061954766802
-0.0015522415351992
0.11059233530026
-0.0016970978596658
0.11056617331343
-0.0018502479402632
0.11054169718026
-0.0020136771226998
0.11051981111732
-0.0021863519132302
0.11050128186141
-0.0023714979500325
0.11048718850397
-0.0025652201258006
0.1104784871441
-0.0027742284064248
0.11047627144478
-0.0029886038934357
0.11048212482206
-0.0032242649460889
0.11049653443262
-0.0034576005570891
0.11052329567617
-0.0037263161636574
0.11056008533301
-0.00397427318348
0.11061637719268
-0.0042877114922609
0.1106791734437
-0.0045364407001757
-0.0049142429163874
0.11077174395239
0.104652177287
-5.0021396219207e-05
0.10464803484855
-0.00014428927129726
0.1046408873413
-0.00023479572723312
0.10463068007631
-0.00032468244155204
0.10461745975976
-0.00041538819589203
0.10460130512823
-0.00050751351805834
0.10458229449861
-0.00060153757809236
0.10456050335651
-0.00069829823843739
0.10453607291612
-0.0007988512762071
0.10450922360774
-0.00090415492714594
0.10448023929382
-0.0010147405784858
0.1044493887347
-0.0011309740901265
0.10441699502236
-0.001253109869335
0.10438337405176
-0.0013818739680341
0.10434898402354
-0.0015178515400677
0.10431424415359
-0.0016623580222968
0.10427983674062
-0.0018158405591898
0.1042462713908
-0.0019801118039325
0.10421453865271
-0.0021546192050296
0.10418515658709
-0.0023421159128724
0.10415950990936
-0.002539573474752
0.10413799886726
-0.0027527173890844
0.10412251108886
-0.0029731161376971
0.10411341585732
-0.0032151697351149
0.10411270463203
-0.0034568893499419
0.10412224152404
-0.0037358530712527
0.10414116745978
-0.0039931991319734
0.10418228263091
-0.0043288266736648
0.10422440871531
-0.0045785667924769
-0.0049939055729343
0.1043040713652
0.098778244249981
-4.8547421624907e-05
0.098773687291625
-0.00013973236356869
0.098765769098166
-0.0002268775847931
0.098754453985887
-0.00031336737942557
0.098739767248762
-0.000400701507661
0.09872178320605
-0.00048952952291483
0.098700657432574
-0.00058041185108964
0.098676428195468
-0.00067406904692417
0.098649075168231
-0.00077149829398157
0.098618860125652
-0.00087393992912859
0.098586041013103
-0.00098192151022272
0.098550855494175
-0.001095788615193
0.098513602044577
-0.0012158564635091
0.098474563467769
-0.0013428354346628
0.098434158677464
-0.0014774467928559
0.098392743244386
-0.0016209426317433
0.098350967574771
-0.0017740649313847
0.098309237210215
-0.0019383814800311
0.09826857669439
-0.0021139587283435
0.098229265887071
-0.0023028051425536
0.098192980606806
-0.002503288229007
0.098159445962805
-0.0027191827767058
0.098131730756488
-0.0029454009600922
0.098107963198747
-0.0031914022028319
0.098094210268292
-0.0034431364414368
0.098084727837454
-0.0037263706581
0.098090788615853
-0.0039992599237199
0.098100489692621
-0.00433852775966
0.098127919394294
-0.0046059964998464
0.098229347452677
-0.0050953336351142
0.39474019854557
0.0046387733664567
0.39026094533555
0.0044792532016717
0.38594568948223
0.0043152558450613
0.3817987956172
0.0041468938567864
0.37782448990651
0.0039743057024185
0.37402685965165
0.0037976302465436
0.37040984294736
0.0036170166959243
0.36697721763457
0.0034326253043897
0.36373259371608
0.0032446239100591
0.360679409155
0.0030531845526404
0.35782092709905
0.0028584820475207
0.35516023300493
0.0026606940857283
0.35270023119449
0.0024600018020835
0.350443641039
0.0022565901472374
0.34839299305871
0.00205064797212
0.34655062518172
0.0018423678689497
0.34491867917761
0.0016319459962078
0.34349909730405
0.0014195818658353
0.34229361895573
0.0012054783407681
0.34130377731634
0.00098984163206784
0.34053089528283
0.00077288202639313
0.33997607995953
0.00055481531643714
0.33964021020107
0.00033586975182133
0.33952387948506
0.00011633070965988
0.33962766574259
-0.00010378626364469
0.33995190881302
-0.00032424307626307
0.34049651858282
-0.00054460977539794
0.34126127507768
-0.00076475650017715
0.34224574020991
-0.00098446513734547
0.34344924713969