/*--------------------------------*- C++ -*----------------------------------*\
| =========                 |                                                 |
| \\      /  F ield         | OpenFOAM: The Open Source CFD Toolbox           |
|  \\    /   O peration     | Version:  2112                                  |
|   \\  /    A nd           | Website:  www.openfoam.com                      |
|    \\/     M anipulation  |                                                 |
\*---------------------------------------------------------------------------*/
FoamFile
{
    version     2.0;
    format      ascii;
    arch        "LSB;label=32;scalar=64";
    class       volVectorField;
    location    "16";
    object      U;
}
// * * * * * * * * * * * * * * * * * * * * * * * * * * * * * * * * * * * * * //

dimensions      [0 1 -1 0 0 0 0];

internalField   nonuniform List<vector> 
22000
(
(1.000001093642 -2.6781178504642e-05 0)
(1.0000277337634 -7.9733647340208e-05 0)
(1.0000785462316 -0.0001321137932222 0)
(1.0001545310448 -0.00018411934812419 0)
(1.0002560309039 -0.00023583177537128 0)
(1.0003829109819 -0.0002872808876489 0)
(1.0005348651101 -0.00033846371389778 0)
(1.0007116226172 -0.00038936883635677 0)
(1.0009129922448 -0.00043997588274102 0)
(1.0011388451133 -0.0004902841193997 0)
(1.0013890570301 -0.00054026655856883 0)
(1.0016635063693 -0.00058991988108263 0)
(1.0019620244164 -0.00063917622424159 0)
(1.0022844460735 -0.00068804060564493 0)
(1.0026305340244 -0.00073638924736641 0)
(1.0030000930403 -0.00078427999620463 0)
(1.0033928035605 -0.00083148101888818 0)
(1.0038084602515 -0.00087819662156413 0)
(1.0042466257627 -0.00092397809538734 0)
(1.0047071402269 -0.00096939653240942 0)
(1.0051893973195 -0.0010134963694171 0)
(1.005693398348 -0.0010576495973255 0)
(1.0062182281748 -0.0010996569032542 0)
(1.0067642232345 -0.0011426861392656 0)
(1.0073298222141 -0.0011816644883789 0)
(1.0079160371403 -0.0012239713115703 0)
(1.0085200375984 -0.0012580178999863 0)
(1.0091442815849 -0.0013010179910062 0)
(1.0097835675603 -0.0013264549770565 0)
(1.0104434239662 -0.0013742096943544 0)
(1.0000005258176 -7.8656585074436e-05 0)
(1.0000269529424 -0.00023432348895315 0)
(1.0000776211215 -0.00038845077669027 0)
(1.00015347711 -0.00054158125724661 0)
(1.0002549297793 -0.00069392560558752 0)
(1.0003819245788 -0.000845559041187 0)
(1.0005342033895 -0.00099647123324752 0)
(1.0007115266797 -0.0011466327280372 0)
(1.0009137163912 -0.0012959899949963 0)
(1.0011406734428 -0.0014445447715781 0)
(1.0013922856943 -0.0015922184442576 0)
(1.0016684785366 -0.0017389980434987 0)
(1.0019690828767 -0.0018846828681965 0)
(1.0022940055807 -0.0020292848431231 0)
(1.0026429757981 -0.0021724442935754 0)
(1.0030159244662 -0.0023143271755565 0)
(1.0034124251353 -0.0024542618448235 0)
(1.0038325149324 -0.0025928350445965 0)
(1.0042754848613 -0.0027287513588959 0)
(1.0047416659994 -0.0028636523496234 0)
(1.0052298158012 -0.0029947895507486 0)
(1.0057409625801 -0.0031260969490275 0)
(1.0062727597363 -0.0032512641295092 0)
(1.0068277340312 -0.0033793443478737 0)
(1.0074011765652 -0.0034958289996721 0)
(1.0079988129522 -0.0036217491794245 0)
(1.0086109877472 -0.0037240925187088 0)
(1.0092503249687 -0.0038517769090185 0)
(1.0098969973175 -0.0039295811316049 0)
(1.0105784732907 -0.0040704385062715 0)
(1.0000005544795 -0.00012790785088775 0)
(1.0000276006432 -0.00038110828348078 0)
(1.0000793223696 -0.00063192597824394 0)
(1.0001565639687 -0.00088126821654632 0)
(1.0002596844245 -0.0011294686603853 0)
(1.0003886436382 -0.0013766393349378 0)
(1.000543218476 -0.0016227645654852 0)
(1.0007232188886 -0.0018678136129728 0)
(1.0009285010701 -0.0021117210204014 0)
(1.0011590239027 -0.0023545082172093 0)
(1.0014147024186 -0.0025960502799903 0)
(1.0016955403831 -0.0028363286212252 0)
(1.0020013740949 -0.0030750096464459 0)
(1.0023322285993 -0.0033121258009803 0)
(1.0026877883068 -0.0035470870147032 0)
(1.0030681911721 -0.0037801952061027 0)
(1.0034728511335 -0.0040103370412603 0)
(1.0039022029264 -0.0042385220637463 0)
(1.0043551101718 -0.0044625748002401 0)
(1.0048327108663 -0.0046852698866441 0)
(1.0053327239548 -0.0049019654207199 0)
(1.0058578828597 -0.005119289271035 0)
(1.006403439079 -0.0053265943809041 0)
(1.0069756267347 -0.0055391389193483 0)
(1.0075643221014 -0.0057324875136938 0)
(1.008183424146 -0.0059420709596476 0)
(1.0088112152668 -0.0061123425708677 0)
(1.009478433649 -0.0063256195141499 0)
(1.0101386238447 -0.0064554345790381 0)
(1.0108596275133 -0.0066916003410848 0)
(1.0000005730791 -0.00017532976233288 0)
(1.0000281720214 -0.00052221365734017 0)
(1.0000808859956 -0.00086576956206331 0)
(1.0001595387532 -0.0012073862781266 0)
(1.0002644747466 -0.0015475779508554 0)
(1.0003956665691 -0.0018865156777266 0)
(1.000552913796 -0.002224195700436 0)
(1.0007360780036 -0.0025606169978404 0)
(1.0009450583153 -0.0028957372753403 0)
(1.0011798970342 -0.0032296282402947 0)
(1.0014405507283 -0.0035621308394887 0)
(1.0017271362746 -0.0038932330586829 0)
(1.0020394997207 -0.0042224704434526 0)
(1.0023778351101 -0.0045499212855163 0)
(1.0027417672931 -0.0048747709027701 0)
(1.0031317303977 -0.0051975051807024 0)
(1.0035469194667 -0.0055165591754758 0)
(1.0039883357767 -0.0058334371553112 0)
(1.0044542494161 -0.0061450157657128 0)
(1.0049469418377 -0.0064553162119646 0)
(1.0054626802637 -0.0067576129044225 0)
(1.0060066035451 -0.0070614659732854 0)
(1.0065705969732 -0.0073514781982419 0)
(1.0071661102712 -0.0076496816232533 0)
(1.0077754303193 -0.0079208348779837 0)
(1.0084239392796 -0.0082160737123134 0)
(1.0090730323809 -0.0084553716856475 0)
(1.0097788710049 -0.0087573397998878 0)
(1.0104577738497 -0.0089399137697539 0)
(1.0112341350532 -0.009276184049557 0)
(1.000000593097 -0.00022095911780073 0)
(1.0000287055322 -0.00065778504483484 0)
(1.0000823266882 -0.0010902502349735 0)
(1.0001622697935 -0.0015203287783676 0)
(1.0002688799865 -0.001948775287787 0)
(1.0004021554283 -0.0023758528679032 0)
(1.0005619246176 -0.0028015983595323 0)
(1.0007481121907 -0.0032260833937898 0)
(1.0009606714534 -0.0036493347877847 0)
(1.0011997536673 -0.004071514574161 0)
(1.0014653732799 -0.0044924460180817 0)
(1.0017577969007 -0.0049121400603318 0)
(1.0020768895006 -0.0053300038990573 0)
(1.0024230665514 -0.0057461940807171 0)
(1.0027958855043 -0.0061596774436496 0)
(1.0031961645411 -0.0065711847369014 0)
(1.0036228321827 -0.0069786839564212 0)
(1.0040776170531 -0.0073842667717559 0)
(1.004558052459 -0.007783772915575 0)
(1.005067876001 -0.0081826219350856 0)
(1.0056015402942 -0.0085717593817034 0)
(1.0061672295744 -0.0089639963184183 0)
(1.0067526116648 -0.0093386466017232 0)
(1.0073757127369 -0.0097252648702481 0)
(1.0080093078806 -0.01007665091085 0)
(1.0086932122316 -0.010461355648539 0)
(1.0093676689046 -0.010772332694657 0)
(1.0101207058646 -0.011168281897858 0)
(1.0108220620153 -0.011405899424264 0)
(1.0116668359496 -0.011849921816584 0)
(1.0000006131713 -0.00026473185197501 0)
(1.000029128351 -0.00078761258749353 0)
(1.000083428039 -0.0013050213109999 0)
(1.0001643087203 -0.0018196388059732 0)
(1.0002721190869 -0.0023325220309597 0)
(1.0004068938161 -0.0028440574222543 0)
(1.0005685014747 -0.0033543522019449 0)
(1.0007569465754 -0.0038635991622518 0)
(1.0009722517026 -0.0043719470609927 0)
(1.0012147037618 -0.0048796946237372 0)
(1.0014843930981 -0.0053866667603345 0)
(1.0017817726372 -0.0058929169712408 0)
(1.0021067389589 -0.0063977279196395 0)
(1.0024599808259 -0.0069013730646554 0)
(1.0028409873777 -0.0074026092140827 0)
(1.003251045357 -0.0079024837175947 0)
(1.0036887828292 -0.0083984813401918 0)
(1.0041568057475 -0.0088933895520887 0)
(1.0046517954842 -0.0093819111191042 0)
(1.0051792287907 -0.0098710405055913 0)
(1.0057314398565 -0.010349116643678 0)
(1.0063202232241 -0.010832568877596 0)
(1.0069283067595 -0.011294810207669 0)
(1.0075814723528 -0.011773774238626 0)
(1.0082413483902 -0.012208992499927 0)
(1.0089647093572 -0.012688377202087 0)
(1.0096670313521 -0.01307498072264 0)
(1.0104736805166 -0.013571889721652 0)
(1.0111999517174 -0.01386816914355 0)
(1.0121235949312 -0.014429631380809 0)
(1.0000006310235 -0.00030649171384928 0)
(1.000029344568 -0.00091120888604252 0)
(1.000083912696 -0.0015092594048351 0)
(1.0001651128071 -0.0021041659875459 0)
(1.0002733024812 -0.0026973552454134 0)
(1.0004085632042 -0.0032893698140706 0)
(1.0005708134151 -0.0038804189355123 0)
(1.0007601527454 -0.0044708695089875 0)
(1.0009766877932 -0.0050610507467985 0)
(1.0012208668191 -0.0056514501054428 0)
(1.0014928751052 -0.0062419172844177 0)
(1.00179338755 -0.0068325720472863 0)
(1.0021223482549 -0.0074225797606111 0)
(1.002480769234 -0.0080123758458625 0)
(1.0028680774316 -0.0086005203487416 0)
(1.00328610717 -0.0091884581132037 0)
(1.0037331667577 -0.0097731783271249 0)
(1.0042128748357 -0.01035828381355 0)
(1.0047209768915 -0.010937239435627 0)
(1.0052649352021 -0.011518804908271 0)
(1.0058347295408 -0.012088424558474 0)
(1.0064462413492 -0.012666534589314 0)
(1.0070766851799 -0.013220010138799 0)
(1.0077605719443 -0.013796060195626 0)
(1.0084470806838 -0.01431958729166 0)
(1.0092119956712 -0.014899887406737 0)
(1.0099431581369 -0.01536712702182 0)
(1.0108076588098 -0.015973218281787 0)
(1.0115601628212 -0.016333004119966 0)
(1.012570557339 -0.01702305609563 0)
(1.0000006449728 -0.00034600702666125 0)
(1.00002926863 -0.0010278668567779 0)
(1.0000835320239 -0.001701773987244 0)
(1.000164190978 -0.0023722349497209 0)
(1.0002716168234 -0.0030411181827703 0)
(1.0004059482158 -0.003709159093474 0)
(1.0005671640938 -0.0043767044139186 0)
(1.0007554743105 -0.005044353104424 0)
(1.0009710837794 -0.0057126788439181 0)
(1.001214625393 -0.0063824147351199 0)
(1.0014863977726 -0.007053462112707 0)
(1.0017873302488 -0.007726034208664 0)
(1.002117432247 -0.0083991904452909 0)
(1.00247808494 -0.0090735785431204 0)
(1.00286866611 -0.0097475814799653 0)
(1.003291628698 -0.010423129260558 0)
(1.0037449578872 -0.011096710917004 0)
(1.0042334015243 -0.011772870157922 0)
(1.0047517204021 -0.012443741395123 0)
(1.0053095645298 -0.013120042143246 0)
(1.0058944005464 -0.013784044961886 0)
(1.0065265708617 -0.01446057591276 0)
(1.007177374149 -0.015109356318708 0)
(1.0078907867366 -0.015787744406441 0)
(1.0086026137169 -0.016404702465719 0)
(1.0094091613769 -0.017092866352227 0)
(1.0101686039452 -0.017646652205427 0)
(1.011092926594 -0.018371056661982 0)
(1.0118718353088 -0.018800405626058 0)
(1.01297411646 -0.019631251110252 0)
(1.000000653201 -0.00038299568500676 0)
(1.0000288273315 -0.0011367338378955 0)
(1.0000820811928 -0.0018811382290689 0)
(1.0001611391253 -0.0026218431336244 0)
(1.0002663873264 -0.0033612326465159 0)
(1.0003980297677 -0.0041002731878808 0)
(1.0005561148566 -0.0048394866877209 0)
(1.0007409754092 -0.0055797649522494 0)
(1.0009529285996 -0.0063219936057204 0)
(1.0011928142012 -0.0070672117223729 0)
(1.0014610635507 -0.0078154033320959 0)
(1.0017588891763 -0.008566905972288 0)
(1.0020863847109 -0.009320689566221 0)
(1.0024453394964 -0.010077668151393 0)
(1.0028351010592 -0.010836074957407 0)
(1.0032588004017 -0.011598416303768 0)
(1.0037141128995 -0.012360688304037 0)
(1.004207008261 -0.013128501101985 0)
(1.0047312524439 -0.013892584907351 0)
(1.0052988321641 -0.01466579707157 0)
(1.0058946288971 -0.015426995800878 0)
(1.006543700371 -0.016205745085727 0)
(1.0072112182537 -0.016954069176204 0)
(1.0079510924231 -0.017740257990836 0)
(1.0086852500719 -0.01845618368888 0)
(1.0095314282285 -0.019259553549317 0)
(1.0103170273928 -0.019906533248524 0)
(1.0113007543083 -0.020758927791423 0)
(1.012105057803 -0.02126508183672 0)
(1.0133014278558 -0.022249497342406 0)
(1.0000006545901 -0.00041715294619066 0)
(1.0000279621169 -0.0012368955244934 0)
(1.0000793926641 -0.0020458293549271 0)
(1.0001556257219 -0.0028508584650592 0)
(1.0002570600771 -0.0036549552562851 0)
(1.0003839710935 -0.004459354713746 0)
(1.00053648507 -0.0052647917805612 0)
(1.0007150685418 -0.0060725120178467 0)
(1.0009201620215 -0.0068837814016201 0)
(1.0011528280036 -0.0077000062242201 0)
(1.0014136470048 -0.008521287357864 0)
(1.0017041387431 -0.0093481201648958 0)
(1.0020245020499 -0.010179408072019 0)
(1.0023769653544 -0.011016388255603 0)
(1.0027608700405 -0.011857180960665 0)
(1.0031800689203 -0.012704959961483 0)
(1.0036319571472 -0.013555251521444 0)
(1.0041237894467 -0.01441485111142 0)
(1.0046483680002 -0.015273040487296 0)
(1.0052201034117 -0.01614497475804 0)
(1.0058213138333 -0.017005914358734 0)
(1.006481891996 -0.017890443365063 0)
(1.0071608801949 -0.018742471506251 0)
(1.0079222919213 -0.019641839863034 0)
(1.008674130717 -0.020462455608338 0)
(1.0095558168258 -0.021388442490929 0)
(1.0103638666677 -0.022135826417549 0)
(1.0114040935523 -0.023126050501754 0)
(1.0122315594378 -0.023717380495822 0)
(1.0135211279838 -0.024868203404636 0)
(1.0000006479929 -0.0004481820594873 0)
(1.0000266289746 -0.0013274682402192 0)
(1.0000753417045 -0.0021943802069176 0)
(1.0001474044912 -0.0030572268731219 0)
(1.0002432248227 -0.0039196377103298 0)
(1.000363153132 -0.0047831514359695 0)
(1.0005073996213 -0.0056487526098785 0)
(1.0006765714064 -0.0065181000642704 0)
(1.0008712404666 -0.0073929081973916 0)
(1.001092702405 -0.0082750108512032 0)
(1.0013416998587 -0.0091646616317568 0)
(1.0016200741914 -0.01006254771847 0)
(1.0019281489999 -0.010967534932405 0)
(1.0022686127985 -0.01188124127467 0)
(1.0026408305109 -0.012801722195266 0)
(1.0030494022858 -0.013732906604415 0)
(1.0034914882644 -0.014669893913656 0)
(1.0039756564066 -0.015620769853208 0)
(1.0044938177302 -0.016573363281702 0)
(1.005062824329 -0.01754524649241 0)
(1.0056625513401 -0.018507982303017 0)
(1.0063276991127 -0.019501359529185 0)
(1.0070113976166 -0.020460934728604 0)
(1.0077876173687 -0.021478484682806 0)
(1.0085508719682 -0.022409465252667 0)
(1.0094618259236 -0.023465213996483 0)
(1.0102870411913 -0.024320582891288 0)
(1.0113783237959 -0.025458236177817 0)
(1.0122254540991 -0.026144155732028 0)
(1.0136041272474 -0.027473753102059 0)
(1.0000006327584 -0.000475817398668 0)
(1.0000248008051 -0.001407667512278 0)
(1.0000698520505 -0.0023254927200283 0)
(1.0001363263082 -0.0032391306630172 0)
(1.0002246335893 -0.004152930597385 0)
(1.000335200006 -0.0050687662506667 0)
(1.0004683229988 -0.0059879058750526 0)
(1.0006247524669 -0.0069124772956213 0)
(1.0008051960813 -0.007844708920736 0)
(1.0010111860188 -0.0087869195341792 0)
(1.0012436358793 -0.009739552930589 0)
(1.0015047138948 -0.01070352135177 0)
(1.0017948847981 -0.011677687233858 0)
(1.0021173033475 -0.012664104497046 0)
(1.0024713910873 -0.013660823439551 0)
(1.0028625009257 -0.0146726085336 0)
(1.003287618446 -0.015694199233251 0)
(1.0037566146597 -0.016735055309018 0)
(1.0042606223184 -0.017781597656557 0)
(1.0048188776708 -0.018853882290552 0)
(1.0054090310581 -0.019919781043856 0)
(1.006070409631 -0.021024343690273 0)
(1.0067506697823 -0.022094764499693 0)
(1.0075332657235 -0.023234836347487 0)
(1.0083001394498 -0.024281574158122 0)
(1.0092320613478 -0.025473625612085 0)
(1.0100676086536 -0.026444722350803 0)
(1.0112019658085 -0.027738751778132 0)
(1.0120639578815 -0.028529596901155 0)
(1.013524394676 -0.030049323447317 0)
(1.0000006083108 -0.00049984214170421 0)
(1.0000224682736 -0.001476860171151 0)
(1.0000628997463 -0.0024381245531064 0)
(1.0001223445276 -0.0033951103879628 0)
(1.0002012079972 -0.0043529411681219 0)
(1.0002999895846 -0.0053138515320124 0)
(1.0004190741738 -0.0062794236466244 0)
(1.0005593511643 -0.0072523040587863 0)
(1.0007216636907 -0.0082352965500882 0)
(1.0009077758522 -0.009231256897549 0)
(1.0011187761437 -0.010240857140579 0)
(1.0013571543621 -0.011265265372179 0)
(1.0016235296048 -0.012303380392175 0)
(1.0019215141501 -0.013357742019952 0)
(1.002250618831 -0.01442646588041 0)
(1.0026169306194 -0.015515219943531 0)
(1.0030173344879 -0.016618477138136 0)
(1.003462954297 -0.017747127000356 0)
(1.0039442952562 -0.018886285553747 0)
(1.0044828432194 -0.020058492610477 0)
(1.0050543351815 -0.021228062349425 0)
(1.0057023895563 -0.022445204706422 0)
(1.0063698413451 -0.023629017343444 0)
(1.0071488349194 -0.024895022514479 0)
(1.0079101250464 -0.026062398772493 0)
(1.0088527693678 -0.027396361134486 0)
(1.0096903307552 -0.02849087086892 0)
(1.0108573169839 -0.029949160614487 0)
(1.0117280353434 -0.030856033942687 0)
(1.0132596909794 -0.032575694549038 0)
(1.0000005746471 -0.00052010066873084 0)
(1.0000196395214 -0.0015346011127349 0)
(1.0000545104055 -0.0025315497784205 0)
(1.0001055117791 -0.0035241499128905 0)
(1.000173035306 -0.0045183436988997 0)
(1.0002576481345 -0.0055167460461539 0)
(1.0003598197892 -0.0065212781526162 0)
(1.0004805700973 -0.0075351472814287 0)
(1.000620872637 -0.0085617878716602 0)
(1.0007827101268 -0.0096046372113933 0)
(1.0009673445837 -0.010664633187713 0)
(1.0011775706151 -0.011743225935633 0)
(1.0014141705747 -0.012839395212172 0)
(1.0016811900459 -0.013956209383302 0)
(1.0019782612399 -0.015091930526859 0)
(1.0023121612623 -0.016253181472362 0)
(1.0026797564598 -0.017434288690456 0)
(1.0030933322061 -0.018647592196486 0)
(1.0035429507497 -0.019877071362906 0)
(1.0040521373814 -0.021147671542157 0)
(1.0045951107039 -0.022420425562351 0)
(1.0052192973021 -0.023750421936615 0)
(1.0058635570539 -0.025049238292859 0)
(1.0066276281369 -0.026443419588025 0)
(1.0073728908208 -0.027735587263606 0)
(1.0083142427026 -0.029215827175479 0)
(1.009144113577 -0.030441149878956 0)
(1.0103309628294 -0.032070127481756 0)
(1.0112029299773 -0.033104709094378 0)
(1.0127921908486 -0.035032045273983 0)
(1.0000005317895 -0.00053650605430432 0)
(1.0000163388674 -0.0015806546186291 0)
(1.0000447570911 -0.0026053938061092 0)
(1.0000859733531 -0.0036257254794402 0)
(1.0001403557366 -0.00464844340506 0)
(1.0002085313961 -0.0056765553060826 0)
(1.0002910478333 -0.0067123398662245 0)
(1.000389041318 -0.0077595986031063 0)
(1.0005036054264 -0.0088224434820849 0)
(1.0006369201524 -0.0099049292941084 0)
(1.0007904136251 -0.011008295274168 0)
(1.0009671571107 -0.012134293515909 0)
(1.0011681001131 -0.013282033507029 0)
(1.0013976812048 -0.014455143976457 0)
(1.0016556838458 -0.015652124873706 0)
(1.0019495075071 -0.016880585400002 0)
(1.0022760868365 -0.018134851691414 0)
(1.0026487359356 -0.019428694507834 0)
(1.0030572843763 -0.020745192085669 0)
(1.0035270161848 -0.022111529734222 0)
(1.0040310975217 -0.023485889836871 0)
(1.0046201454966 -0.024927759405449 0)
(1.0052300565091 -0.026342108044989 0)
(1.0059667978871 -0.027865338751033 0)
(1.0066845548078 -0.029285526655495 0)
(1.0076110642239 -0.030914892662067 0)
(1.008422288783 -0.032277912951322 0)
(1.0096141321682 -0.034082184448069 0)
(1.0104785425281 -0.035256510060442 0)
(1.0121089533241 -0.037396726799884 0)
(1.0000004803295 -0.00054904217192833 0)
(1.0000126049194 -0.0016150012103555 0)
(1.0000337526536 -0.0026596450896874 0)
(1.0000639544877 -0.0036998224784371 0)
(1.0001035430438 -0.0047431997366055 0)
(1.0001531956147 -0.0057931823293451 0)
(1.0002135279304 -0.0068524175647836 0)
(1.0002857742687 -0.0079253255476751 0)
(1.0003711322385 -0.0090167326763377 0)
(1.0004719508251 -0.010131338093211 0)
(1.0005898102625 -0.011270713490659 0)
(1.000728020241 -0.012436926315688 0)
(1.0008876954071 -0.013629266300619 0)
(1.0010736119507 -0.014851942238975 0)
(1.0012857307882 -0.016103792026803 0)
(1.0015319827657 -0.01739341934767 0)
(1.0018094598433 -0.018715321507802 0)
(1.0021323351946 -0.020084636863689 0)
(1.0024904312172 -0.021483842560393 0)
(1.0029104464545 -0.022942106967831 0)
(1.0033650143 -0.024415349373603 0)
(1.0039072097594 -0.025966768403103 0)
(1.0044711082246 -0.027495983703537 0)
(1.0051673172838 -0.0291476164903 0)
(1.0058452975551 -0.030697962496064 0)
(1.0067421735035 -0.032477557514423 0)
(1.0075227229692 -0.033984422857858 0)
(1.0087028736472 -0.035966452786303 0)
(1.009549638519 -0.037292655654564 0)
(1.011202208542 -0.039648002036209 0)
(1.0000004214675 -0.0005577626048937 0)
(1.0000084866278 -0.0016378314289159 0)
(1.0000216425172 -0.0026946384796022 0)
(1.0000397456502 -0.0037469099334296 0)
(1.0000630792232 -0.0048031958980768 0)
(1.0000923604117 -0.0058672950484227 0)
(1.0001282602641 -0.0069422263873531 0)
(1.0001720883996 -0.0080330424154534 0)
(1.0002251261452 -0.0091453105314216 0)
(1.0002898570583 -0.010284391167164 0)
(1.0003679934753 -0.011452214402692 0)
(1.0004630363224 -0.012651169102306 0)
(1.0005762564111 -0.013880774284154 0)
(1.0007126994071 -0.015145826202608 0)
(1.0008725242352 -0.016445604614824 0)
(1.0010640823509 -0.017789693130678 0)
(1.0012847099225 -0.019172951570809 0)
(1.0015492379951 -0.020611781114803 0)
(1.0018477148215 -0.022088414982082 0)
(1.0022078563415 -0.023633661914239 0)
(1.0026023139223 -0.025201906145172 0)
(1.0030857962809 -0.026859175655418 0)
(1.0035917903275 -0.02850132694115 0)
(1.0042337842043 -0.030279098165116 0)
(1.0048591923672 -0.031960513951355 0)
(1.0057107399853 -0.033889535674023 0)
(1.006447739279 -0.035545455521083 0)
(1.0075980524617 -0.037705323311389 0)
(1.0084158905767 -0.039195345491853 0)
(1.0100694650858 -0.041764769501161 0)
(1.0000003536334 -0.00056278671795451 0)
(1.0000040466257 -0.0016495167406721 0)
(1.0000086054458 -0.0027110233368821 0)
(1.0000136865105 -0.0037679134657794 0)
(1.0000195250947 -0.0048296058813867 0)
(1.0000268630105 -0.0059002851898815 0)
(1.000036412346 -0.0069833395098977 0)
(1.0000495309908 -0.0080844563932079 0)
(1.0000675594485 -0.009209959424463 0)
(1.0000930756098 -0.010365876000267 0)
(1.0001278998411 -0.011554515977488 0)
(1.0001756706145 -0.012778589361114 0)
(1.0002377997391 -0.014037891210366 0)
(1.0003195236519 -0.01533780132146 0)
(1.0004212112087 -0.016678141581241 0)
(1.0005515086432 -0.018069443351632 0)
(1.0007080746163 -0.019507125642853 0)
(1.0009061746865 -0.021008719709824 0)
(1.0011363111063 -0.022556604474762 0)
(1.0014267856529 -0.024182829066821 0)
(1.0017508264496 -0.025841067486037 0)
(1.0021638876731 -0.027599149161463 0)
(1.0026001443195 -0.029351007920567 0)
(1.0031740851205 -0.031251014498291 0)
(1.0037338785738 -0.033063070254441 0)
(1.0045238518895 -0.0351387238764 0)
(1.0052038366642 -0.036947786594484 0)
(1.0063051307943 -0.039283061516355 0)
(1.0070817466301 -0.040948379254703 0)
(1.0087134582733 -0.043727307856297 0)
(1.0000002816399 -0.00056428317151669 0)
(0.99999934058785 -0.0016506235242671 0)
(0.99999480948162 -0.0027097578972098 0)
(0.9999861353149 -0.0037641587974609 0)
(0.99997348274984 -0.0048241121003713 0)
(0.99995760884307 -0.0058941674667611 0)
(0.99993925284732 -0.0069780722707863 0)
(0.99991979241439 -0.0080821416396623 0)
(0.99990060007699 -0.009213459994695 0)
(0.99988430163405 -0.010378713946993 0)
(0.99987279529189 -0.011580606201763 0)
(0.99986979839532 -0.012822160147744 0)
(0.99987684402682 -0.014103488821396 0)
(0.99989927729059 -0.01543054573352 0)
(0.99993767794717 -0.016803782786449 0)
(1.0000008544802 -0.018234641675324 0)
(1.0000868463081 -0.019719278408761 0)
(1.0002111241826 -0.021276225912126 0)
(1.0003648455223 -0.022888376597282 0)
(1.0005764607779 -0.024588637336499 0)
(1.0008203055916 -0.026330783504581 0)
(1.0011516809166 -0.028183421542378 0)
(1.0015067055332 -0.030040449855129 0)
(1.0019989449912 -0.032057253766919 0)
(1.0024801294678 -0.033998058096803 0)
(1.0031920753997 -0.036215576604586 0)
(1.0038012342003 -0.038180501981857 0)
(1.0048336935078 -0.04068621993105 0)
(1.005556035745 -0.042537639249018 0)
(1.0071418926742 -0.045517931963306 0)
(1.0000002045969 -0.00056247187895667 0)
(0.99999443827504 -0.0016418202823479 0)
(0.99998045336804 -0.0026919911730611 0)
(0.99995747216903 -0.0037372861386096 0)
(0.99992558453611 -0.0047888241776206 0)
(0.99988554503201 -0.0058514932636749 0)
(0.99983810519073 -0.0069293849946052 0)
(0.99978463368849 -0.0080294250713214 0)
(0.99972651042545 -0.0091594577247181 0)
(0.99966636105995 -0.010326811131937 0)
(0.9996061266217 -0.011534588743557 0)
(0.9995495365232 -0.012786108824602 0)
(0.99949821824448 -0.014081834691942 0)
(0.99945754345533 -0.015428276092102 0)
(0.99942829227412 -0.016826584438391 0)
(0.99941930805779 -0.018289080661633 0)
(0.99942903557896 -0.019812789003627 0)
(0.99947294164113 -0.021417163881522 0)
(0.99954297364289 -0.023085873138609 0)
(0.99966734774688 -0.024852451711426 0)
(0.99982192239841 -0.026671358525915 0)
(1.0000610594494 -0.028611294185656 0)
(1.0003239112535 -0.030567565126208 0)
(1.0007213565534 -0.032694531628509 0)
(1.0011112909126 -0.034760508669059 0)
(1.001728983391 -0.037113544007278 0)
(1.0022534090031 -0.039235139310957 0)
(1.0031968348799 -0.041903914536967 0)
(1.0038512856879 -0.043951038623253 0)
(1.005366854145 -0.047121045244927 0)
(1.0000001227072 -0.00055759639865029 0)
(0.99998938702326 -0.0016238766384037 0)
(0.99996569450872 -0.0026590379685737 0)
(0.99992803544695 -0.0036891557002737 0)
(0.99987642014171 -0.0047261464683885 0)
(0.99981158206175 -0.0057752029032482 0)
(0.99973426771076 -0.0068407343065934 0)
(0.99964579978762 -0.0079302410078259 0)
(0.99954754222276 -0.0090523187190962 0)
(0.9994420693633 -0.010214908669176 0)
(0.99933133969566 -0.011421531782938 0)
(0.99921902246427 -0.012675771700336 0)
(0.99910681819978 -0.013978473107066 0)
(0.99900002780504 -0.015336656625862 0)
(0.99889962010766 -0.016752237022661 0)
(0.9988143397924 -0.018238371629396 0)
(0.99874304106016 -0.019793047132322 0)
(0.99870099756176 -0.021436603913962 0)
(0.99868099366171 -0.023153588574244 0)
(0.9987107338351 -0.024978194159155 0)
(0.99876778818692 -0.026865650679633 0)
(0.99890509047124 -0.028884900996794 0)
(0.99906544978483 -0.030932788283298 0)
(0.99935592036942 -0.033162680645123 0)
(0.99964243974046 -0.035347822790349 0)
(1.0001505575543 -0.037829779179082 0)
(1.0005766910822 -0.040105489444711 0)
(1.0014109712683 -0.042928926128457 0)
(1.0019833726425 -0.045177315530979 0)
(1.0034039141567 -0.048521902925004 0)
(1.0000000334943 -0.00054992455286225 0)
(0.99998422705962 -0.0015976143161297 0)
(0.99995066796741 -0.0026122749593509 0)
(0.99989811808925 -0.003621690086255 0)
(0.99982650352579 -0.0046385530711402 0)
(0.99973652370227 -0.0056683394168105 0)
(0.9996289163957 -0.006715736164731 0)
(0.99950490949296 -0.007788754450093 0)
(0.99936582483014 -0.0088967236958805 0)
(0.99921410984071 -0.010048160769554 0)
(0.9990517302974 -0.011247042000383 0)
(0.99888220935823 -0.01249716025482 0)
(0.99870734992232 -0.013799789588573 0)
(0.99853223131806 -0.015162352521389 0)
(0.99835805780359 -0.016587636022272 0)
(0.99819324634223 -0.01808949667009 0)
(0.99803717574426 -0.019667060407964 0)
(0.99790460819139 -0.021341415128391 0)
(0.99778932863005 -0.023098121859505 0)
(0.99771813036227 -0.024972106945026 0)
(0.99767048598991 -0.026919079333507 0)
(0.99769750560705 -0.029009210761928 0)
(0.99774582809627 -0.031139117659614 0)
(0.99791834432832 -0.033464726712439 0)
(0.99808953008684 -0.035758921267607 0)
(0.99847435547419 -0.038365406422937 0)
(0.99878928529872 -0.040785503470433 0)
(0.9994964244543 -0.04376084248043 0)
(0.99997341951972 -0.046203352571632 0)
(1.0012721775508 -0.049708072671317 0)
(0.99999993175066 -0.00053978428528178 0)
(0.99997904204442 -0.0015640380194555 0)
(0.99993559824133 -0.0025532884619832 0)
(0.99986811002903 -0.0035369515750609 0)
(0.99977640425826 -0.0045285404937876 0)
(0.99966116956914 -0.0055338461018977 0)
(0.99952316846005 -0.0065577916159081 0)
(0.99936347283141 -0.007608785871388 0)
(0.99918331585225 -0.0086968068720121 0)
(0.99898490948374 -0.0098309433561182 0)
(0.99877025248408 -0.011015741883912 0)
(0.99854262700537 -0.012255131451993 0)
(0.99830404214553 -0.01355088127347 0)
(0.99805910365885 -0.014910610594056 0)
(0.99780944317848 -0.016338180339282 0)
(0.99756266912581 -0.017847787191773 0)
(0.99731915308581 -0.01944014059016 0)
(0.99709230311172 -0.021136500482877 0)
(0.99687783461327 -0.022924217111378 0)
(0.99670022002376 -0.02483824938551 0)
(0.99654239455875 -0.026835479152137 0)
(0.99645156387335 -0.028987392589337 0)
(0.99638023027153 -0.031188893110659 0)
(0.9964247831671 -0.033603297084522 0)
(0.99646989628322 -0.035992429116907 0)
(0.99671878279697 -0.03872403590519 0)
(0.99690966943035 -0.041266259269495 0)
(0.99747604956826 -0.044413114993703 0)
(0.99785071219346 -0.047013840347571 0)
(0.99899836746179 -0.050704577958466 0)
(0.99999979673429 -0.00052765213025221 0)
(0.99997399902341 -0.0015246742241113 0)
(0.99992096098166 -0.0024844427570217 0)
(0.99983874942093 -0.0034378877592355 0)
(0.99972702214711 -0.0043993888184685 0)
(0.99958655860777 -0.0053751296417225 0)
(0.9994182826918 -0.0063703223962397 0)
(0.99922313102128 -0.0073937176830325 0)
(0.99900210033455 -0.0084556475008975 0)
(0.99875692193759 -0.0095657430749008 0)
(0.99848968236695 -0.010729264307403 0)
(0.99820344210547 -0.011950289351387 0)
(0.99790057113169 -0.013231251325661 0)
(0.99758492998899 -0.014579814870109 0)
(0.99725884872202 -0.016001235134122 0)
(0.99692848336695 -0.017509564214115 0)
(0.99659596334708 -0.019107862317127 0)
(0.99627185354767 -0.020816416874543 0)
(0.99595576651979 -0.022626242339977 0)
(0.99566663431779 -0.02456990972254 0)
(0.99539542100287 -0.026609326356409 0)
(0.9951787078751 -0.028813016256592 0)
(0.99498413889307 -0.031079695811136 0)
(0.99488891027221 -0.033576369893649 0)
(0.99480360509487 -0.036052342938241 0)
(0.99489947273005 -0.038916833076801 0)
(0.99495760804577 -0.041552736371575 0)
(0.99536273154741 -0.044936543147722 0)
(0.99563871464164 -0.047597741931287 0)
(0.99661972735484 -0.051720718218916 0)
(0.99999955910197 -0.00051466574415932 0)
(0.99996890159009 -0.0014828916101847 0)
(0.99990684271631 -0.0024117276051948 0)
(0.99981046499534 -0.0033334991337375 0)
(0.99967911043738 -0.0042632363499484 0)
(0.99951366257627 -0.0052072614429411 0)
(0.99931532258852 -0.0061710698320799 0)
(0.99908525227925 -0.0071638761058208 0)
(0.9988241278408 -0.0081965863189426 0)
(0.99853278236087 -0.0092794351631492 0)
(0.99821328314233 -0.010418174231693 0)
(0.99786853873671 -0.011616918907327 0)
(0.9975013011749 -0.012878985232456 0)
(0.99711469099793 -0.014212258074355 0)
(0.99671176096812 -0.015623986347491 0)