/*--------------------------------*- C++ -*----------------------------------*\
| =========                 |                                                 |
| \\      /  F ield         | OpenFOAM: The Open Source CFD Toolbox           |
|  \\    /   O peration     | Version:  2112                                  |
|   \\  /    A nd           | Website:  www.openfoam.com                      |
|    \\/     M anipulation  |                                                 |
\*---------------------------------------------------------------------------*/
FoamFile
{
    version     2.0;
    format      ascii;
    arch        "LSB;label=32;scalar=64";
    class       volScalarField;
    location    "18";
    object      p;
}
// * * * * * * * * * * * * * * * * * * * * * * * * * * * * * * * * * * * * * //

dimensions      [0 2 -2 0 0 0 0];

internalField   nonuniform List<scalar> 
22000
(
0.023299385144894
0.023276684098061
0.023229933958634
0.023157942299972
0.023060189658963
0.022936709619232
0.02278778518213
0.022613716885869
0.022414732937316
0.022191008651074
0.021942714357249
0.021670047620308
0.021373238396508
0.021052552381146
0.020708281330845
0.020340750349893
0.019950302063986
0.019537320318695
0.019102198291027
0.018645391010581
0.018167340263204
0.017668589705084
0.017149614385439
0.016611078524322
0.016053450464986
0.015477582516972
0.014883842425291
0.014273414765791
0.013646339970533
0.013004409439771
0.023722789072354
0.023698892458306
0.023650683782519
0.023577053516558
0.023477431613997
0.023351777640796
0.023200322414952
0.023023339988756
0.022821045548671
0.022593604415282
0.022341174331256
0.022063938660717
0.021762111144488
0.021435942944097
0.021085709471571
0.02071172338538
0.020314310131041
0.019893844176537
0.019450698910224
0.018985326238337
0.018498142392239
0.017989700706694
0.017460436602351
0.016911048170925
0.016341928990867
0.015754010971809
0.01514749723984
0.014523726367833
0.013882337815623
0.013225302032921
0.024499320828222
0.024474594147609
0.024424787180889
0.024348868474832
0.024246318054238
0.024117095428906
0.023961403245324
0.023779482222805
0.023571518089034
0.023337651561629
0.023078016269914
0.022792771306487
0.022482102316535
0.022146233284476
0.021785407925247
0.021399912911543
0.020990039714402
0.020556142234141
0.020098555788007
0.019617723747376
0.019114014899871
0.018587998472245
0.0180400386263
0.017470900172712
0.016880846792535
0.016270983688793
0.015641234290104
0.014993311932702
0.014326154772366
0.013642260285068
0.025578214193692
0.025552604109497
0.025501019967261
0.025422414050622
0.025316270771589
0.025182549358818
0.025021436499379
0.024833143968255
0.02461782145173
0.024375572667567
0.024106492782965
0.023810702691845
0.023488345182095
0.023139602689809
0.022764670418239
0.022363793727915
0.021937210850535
0.021485240905143
0.021008159529049
0.020506391478182
0.019980231985824
0.019430265866926
0.018856750508949
0.018260536609949
0.017641696135284
0.017001564563975
0.016339651528392
0.015658162092543
0.014954996011175
0.014233321618115
0.026915548435706
0.026888973081978
0.026835437557442
0.026753860399976
0.026643712316209
0.026504939832353
0.026337706295832
0.026142187555588
0.025918486997179
0.025666657736873
0.025386740156481
0.025078799542029
0.024742916665706
0.02437921315582
0.023987814008958
0.023568902730557
0.023122639892651
0.022649289532031
0.022149040161855
0.021622280624687
0.021069200542192
0.020490390448279
0.019885958553366
0.01925684884224
0.018602876061557
0.01792564915134
0.017224140502482
0.016501164472306
0.015753309261274
0.014984604691473
0.028472474019595
0.028444918725203
0.028389398504877
0.028304796609642
0.028190564902202
0.028046626998485
0.027873109915342
0.027670139391123
0.027437757017683
0.027175948375458
0.026884679969174
0.026563940775824
0.026213726481599
0.025834074085317
0.02542501195238
0.024986635909325
0.024518999227668
0.024022284368957
0.023496559576128
0.022942153134501
0.022359111186847
0.021748011941331
0.021108768551492
0.020442415261767
0.019748444387283
0.019028771237988
0.018281718174942
0.017510807726112
0.016711062778912
0.015887508956291
0.030213930376473
0.030185466754121
0.030128103062508
0.030040687106937
0.029922646677389
0.029773871448881
0.029594437709197
0.0293844052214
0.029143736513177
0.028872330697245
0.028570059038527
0.028236810784032
0.027872470357398
0.027476962507677
0.027050188373649
0.026592125267918
0.02610268443112
0.025581933996014
0.025029782972086
0.02444646662242
0.023831843791742
0.023186452191265
0.022509958078622
0.021803471176123
0.021066093751634
0.020300060511819
0.019502931941095
0.018679004911421
0.01782149131866
0.016936482643949
0.032107637799474
0.032078423045553
0.032019529391555
0.031929768073625
0.031808535843435
0.031655676779516
0.031471202383719
0.031255090702676
0.031007207324063
0.030727344649457
0.030415255629011
0.030070704214223
0.029693434940845
0.02928322953081
0.028839827719588
0.028363052828083
0.027852634526401
0.027308487589173
0.02673031699882
0.026118224293695
0.025471830469256
0.024791593971018
0.024076876470674
0.023328832143793
0.02254610030376
0.021731227379137
0.020880901924055
0.020000227936277
0.019080376831963
0.018128513942822
0.034123464584297
0.034093732017862
0.034033781512776
0.033942383162436
0.033818893931929
0.033663101896948
0.033474941092819
0.033254292315876
0.033000905868278
0.032714446550189
0.032394525214884
0.03204075380973
0.031652706863066
0.031229990102465
0.030772145189696
0.03027880238395
0.029749466435382
0.029183854165301
0.028581416536369
0.027942072568437
0.027265148772788
0.026550973743414
0.025798539849229
0.025008999789623
0.024180453601587
0.023315727300309
0.022410530161697
0.021470770458766
0.020485364102827
0.019462485743549
0.036233117666633
0.036203168008446
0.03614276595619
0.036050641796299
0.035926108915811
0.035768890474329
0.035578829857013
0.035355694167511
0.035099099826886
0.034808563591802
0.034483531190626
0.034123436239809
0.033727653184343
0.033295578022938
0.032826516593753
0.03231986482597
0.031774856908085
0.031190962863594
0.030567325761166
0.029903626132235
0.029198833922732
0.028453086607038
0.027664937463601
0.026835473918976
0.025962175818545
0.025048092856056
0.024087850356507
0.02308811679679
0.022035353294489
0.020938596695451
0.038410019248568
0.038380208646581
0.038320069978074
0.038228301691229
0.038104172981835
0.037947334161731
0.037757525617611
0.037534386343322
0.037277382839342
0.036985865214607
0.036659092231455
0.036296294100597
0.035896616640245
0.035459213439638
0.034983117648988
0.034467449262113
0.033911125823925
0.033313319257125
0.032672808869992
0.031988975070994
0.031260365606367
0.030486854947887
0.029666482243829
0.028800190349973
0.027884755303773
0.026923366174633
0.025909462411729
0.024850385105622
0.023729954383555
0.022557831664087
0.040629309519111
0.040600037034945
0.040540963358131
0.040450767004646
0.040328675251417
0.040174259169773
0.039987145532745
0.039766833066069
0.039512625481607
0.039223691865198
0.038899086892669
0.03853781561027
0.038138769223825
0.037700828754677
0.03722272064618
0.036703249227426
0.036140971216616
0.035534708860222
0.034882822121864
0.034184326133223
0.033437279162404
0.032641212558024
0.031793573949087
0.030895065045916
0.029941671675541
0.028936612277736
0.027872042009644
0.026755839177908
0.025569013415619
0.024321515893737
0.042867954832602
0.042839647857654
0.042782500068821
0.042695184174733
0.042576889574133
0.042427104366016
0.042245334229536
0.042030929142374
0.04178302139297
0.041500589017948
0.041182470244699
0.040827429081521
0.040434082476086
0.040001013242774
0.039526611559186
0.039009330310269
0.038447325596298
0.037839020814865
0.037182304041941
0.036475759033295
0.035716888702435
0.034904794736921
0.034036255005413
0.033111620335966
0.032126000212098
0.031082503548899
0.029971908178757
0.028802446851388
0.027552164344778
0.026230863619041
0.045104889081732
0.045077989195165
0.045023656808783
0.044940575918625
0.044827904994804
0.044685047854364
0.044511385003972
0.044306113687588
0.044068191359733
0.0437964006434
0.043489357025791
0.043145573676143
0.042763380538788
0.042341044678352
0.04187659812
0.041368112406638
0.040813309895917
0.040210171012789
0.039556065460621
0.038849081712959
0.038086105817497
0.037265720515924
0.036383959127346
0.03544069927593
0.034430090314107
0.033354968908654
0.03220464975323
0.030987486814416
0.029678427036958
0.028286581023131
0.047321150863817
0.047296098015142
0.047245469759951
0.047167979927305
0.047062764584836
0.046929145227245
0.046766377200043
0.046573505872546
0.046349316231759
0.046092397511576
0.045801143177051
0.045473813194433
0.045108445795528
0.044702982844168
0.044255086188467
0.043762425925122
0.043222266595343
0.042632109118778
0.041988767341521
0.04128977603457
0.040531350981742
0.039711467011494
0.038825344452005
0.037872258615473
0.036845322437038
0.035746913380773
0.034564809328541
0.033307204295541
0.031945836885046
0.030488472116259
0.049499992628686
0.049477212056241
0.04943114716515
0.049360562472899
0.049264582660665
0.049142451163341
0.048993302007992
0.048816034759379
0.048609270283925
0.04837141311965
0.048100642899819
0.047794972225502
0.047452151982865
0.047069798939081
0.046645202937428
0.046175623248241
0.045657855333289
0.04508889459107
0.044464973174004
0.04378302267774
0.043038546860317
0.042228828495927
0.041348217372281
0.040395252387708
0.039361945362876
0.038250011208465
0.037045636755408
0.035756525215901
0.034351129224858
0.032835100050306
0.051626944616238
0.051606833560384
0.05156613764051
0.051503693302609
0.051418625643024
0.051310107335015
0.051177158878662
0.051018544902123
0.050832736306606
0.050617968116754
0.050372221582932
0.050093276125431
0.049778609198301
0.049425523137051
0.049030945327649
0.048591726626896
0.048104194854008
0.047564827910329
0.046969264701205
0.046313796362518
0.045593187771621
0.044803955371812
0.043939535737683
0.042997598364414
0.04196900490371
0.040854585382963
0.039638916855741
0.038328834624566
0.036889493960557
0.03532349657158
0.053689827060537
0.053672744996742
0.053638148238355
0.053584968066921
0.053512343315211
0.05341938443221
0.053305009209589
0.053167862961785
0.053006286306457
0.052818366094786
0.05260190722642
0.052354477776664
0.052073304573798
0.051755396960762
0.051397341191777
0.050995595553791
0.050546035107392
0.050044623150223
0.049486409185753
0.048867023296506
0.048180479418608
0.047422469633145
0.046585493333037
0.045666227904384
0.044654356983321
0.043549581080952
0.042334889055484
0.041015809181197
0.039554338785135
0.037948975448675
0.055678709773011
0.055664969235028
0.055637110275993
0.0555941818953
0.05553535028493
0.055459674179806
0.055365982107176
0.055252818872619
0.055118418994054
0.054960748270186
0.054777463659893
0.054565950873548
0.054323216545891
0.054046008126549
0.053730602728419
0.053373096091817
0.052968938820444
0.05251360062798
0.052001558886282
0.051427784340188
0.050785539542292
0.050069657895112
0.049271685892391
0.048387218059868
0.047404758138773
0.046322637631624
0.045122328998559
0.043807397089195
0.04233729053576
0.040704666872817
0.057585817125265
0.057575683503723
0.05755510103326
0.057523259747209
0.057479366972166
0.05742244167991
0.057351239963343
0.057264227511846
0.057159559054036
0.057035110017402
0.056888423752717
0.056716740300006
0.056516884528879
0.056285381507503
0.056018240279248
0.055711236905004
0.055359438099866
0.054957860533856
0.054500439494022
0.053981518049544
0.05339361325224
0.052730707438647
0.051983356732812
0.051146032158966
0.050206033215573
0.049160178169269
0.047988599828162
0.046692087379909
0.045228141504311
0.043581256636893
0.059405378039023
0.059399080555741
0.059386225786892
0.059366153909766
0.059338127435538
0.059301146432406
0.059253915742898
0.059194846292239
0.059122041901671
0.059033315534989
0.058926130195099
0.058797622349778
0.058644484744814
0.05846306922355
0.058249169113327
0.05799829289629
0.057705177282585
0.057364440060549
0.056969520575027
0.056514195601584
0.05599025652775
0.055390908773935
0.054705641834229
0.053927884630137
0.053043428587422
0.052047846562798
0.050919440913652
0.049657244176059
0.048215143049744
0.04656946907498
0.061133429921623
0.061131155066948
0.061126404434484
0.061118656985119
0.06110723364873
0.061091137723323
0.061069039288341
0.061039320718101
0.061000083783849
0.060949111546681
0.060883809821927
0.060801242161292
0.060698022106304
0.060570384258747
0.0604139776457
0.06022409960342
0.059995233737845
0.059721646595508
0.059396362463497
0.059012643138063
0.058561634088799
0.058035856338644
0.057423730781551
0.05671785759395
0.055902007175281
0.05497103735887
0.053899495442646
0.052687723692074
0.051282368979447
0.049658553765983
0.06276765503376
0.06276947511329
0.062773054991376
0.062778020895373
0.062783752868815
0.06278926114092
0.062793200112913
0.062793918574513
0.062789550486252
0.06277789530357
0.062756352124298
0.062721944798659
0.062671245353604
0.062600409819457
0.06250502135947
0.062380214412892
0.062220323606844
0.062019269616753
0.061769809070237
0.061464642577646
0.061094511678607
0.060651106650823
0.060122190318784
0.059499358945095
0.058764809964404
0.057912566582042
0.056911519351291
0.055764067148503
0.054401809819416
0.052820850625663
0.064307441735642
0.06431321249217
0.064324927069891
0.064342560280123
0.064365615363839
0.064392977723661
0.064423375749739
0.064455265899355
0.064486736060066
0.064515499242047
0.064538992250937
0.064554282681613
0.064557966095814
0.064546159861346
0.064514461188542
0.064457880282366
0.064370708495705
0.064246431224239
0.064077728658569
0.063856546708082
0.063573704868815
0.063219386358437
0.062781907605738
0.062250050211527
0.061607869202626
0.060844455039413
0.059931102935918
0.058858882709177
0.057546102323163
0.055982339604611
0.065754241900185
0.065763910477949
0.06578307496716
0.065812670330157
0.065852532330926
0.065901131397352
0.065957041034291
0.066019464616685
0.066086615371979
0.066155960488767
0.066224863294685
0.066290397727373
0.066349197612375
0.066397412287412
0.066430797151463
0.066444443843762
0.066432799455459
0.066388824075281
0.066305290705268
0.066173334125252
0.065984300329953
0.065726297702005
0.065389562228107
0.064957575984491
0.064421107436922
0.063755868790795
0.062955532392756
0.061976247030677
0.060778866986966
0.059164567126664
0.012387634548709
0.01179898637678
0.01119897583891
0.010588757052579
0.0099694159295615
0.0093418216462975
0.0087066866632146
0.0080646720658387
0.0074164586933681
0.0067627743172935
0.0061043922291803
0.0054421152569453
0.0047767594356543
0.0041091450472568
0.0034400951404077
0.0027704365021996
0.0021010008349014
0.0014326236019752
0.00076614191681496
0.00010239244431778
-0.00055778895764968
-0.0012135654549685
-0.0018640926313854
-0.0025085093480401
-0.0031459463006715
-0.0037757635809763
-0.0043973570533132
-0.0050099714353077
-0.0056128079944035
-0.0062051062897839
-0.0067861648427698
-0.0073553297473969
-0.0079119836122092
-0.0084555368673269
-0.0089854291226662
-0.0095011257890078
-0.010002127917037
-0.010487963775056
-0.010958206649082
-0.011412450621109
-0.011850349046662
-0.012271556753776
-0.012675819203346
-0.013062839349163
-0.013432482965448
-0.013784471621491
-0.014118859451738
-0.014435333831753
-0.014734347015874
-0.015015549410327
0.012597051138422
0.012000188457845
0.011390339712196
0.01076992863944
0.010140608409783
0.0095031980571063
0.0088581243036328
0.008205794091484
0.0075467516712207
0.0068816860369305
0.0062113792355312
0.0055366501397046
0.0048583212288382
0.0041772130207496
0.0034941535714747
0.0028099868401321
0.0021255738540878
0.0014417895397034
0.00075951811542699
7.9648832407085e-05
-0.00059692994335051
-0.0012693395251838
-0.0019367280827118
-0.0025982949624216
-0.0032532959017199
-0.0039007280844205
-0.0045395704433398
-0.0051690138943764
-0.0057883367897309
-0.0063968219177482
-0.0069937476139188
-0.0075784034754141
-0.0081501073035498
-0.0087082067608673
-0.0092520897589952
-0.0097811759262362
-0.010294933616578
-0.010792856176625
-0.011274499762389
-0.011739427664609
-0.012187296844973
-0.012617728268607
-0.013030504071351
-0.013425268079467
-0.013801977682123
-0.014160211397472
-0.014500195214081
-0.014821192778485
-0.015123786773224
-0.015405999020331
0.012990487394041
0.012371201333606
0.011735249090187
0.011087953386601
0.010432391790127
0.009769451890338
0.0090990952788407
0.0084213152074577
0.0077364772192058
0.0070452780206903
0.0063485853653054
0.0056472988246274
0.0049422853600359
0.004234383640471
0.0035244353801514
0.0028133063795897
0.0021018885095174
0.0013910918942585
0.00068183637761801
-2.4954719598561e-05
-0.00072835862050544
-0.0014274545880694
-0.00212132073571
-0.0028090236031986
-0.0034896060054441
-0.0041621775510045
-0.0048258897006046
-0.0054798989443399
-0.0061233882512837
-0.0067555673654703
-0.0073756721905556
-0.0079829625162112
-0.0085767335081323
-0.0091563122241206
-0.0097210750690402
-0.010270427982351
-0.010803839111216
-0.011320790373405
-0.011820852794037
-0.012303572871731
-0.012768646013145
-0.013215654106468
-0.013644463247047
-0.014054615969492
-0.01444624515344
-0.01481866134568
-0.015172430510067
-0.015506042162767
-0.015820450589938
-0.016110757137002
0.013546772739221
0.012891938178239
0.012215273273049
0.011526735480631
0.010831539036815
0.010130573048752
0.0094230223948189
0.00870823290395
0.0079863052458726
0.007257950780288
0.0065241538871557
0.0057859100838283
0.0050441213151406
0.0042996192051988
0.0035532310899847
0.0028058205403214
0.0020582902655097
0.0013115689091838
0.00056659843733928
-0.00017567282825601
-0.00091429369281695
-0.0016483117721232
-0.0023767768699667
-0.0030987475283564
-0.0038133029703546
-0.0045195361553071
-0.0052165537631775
-0.0059034838458654
-0.0065794793494509
-0.007243719274242
-0.007895416635923
-0.0085338144379435
-0.0091581988067374
-0.009767885292222
-0.010362245196944
-0.010940669826107
-0.011502628493458
-0.012047582975925
-0.012575119446263
-0.013084748852708
-0.013576210385316
-0.014049010355185
-0.014503120432807
-0.014937910047914
-0.015353750739255
-0.01574952619346
-0.016126275073427
-0.016481258036867
-0.016815842868213
-0.017120382114142
0.014253968294497
0.013552318712318
0.012822077719725
0.012079625823867
0.011333004897071
0.010582983936824
0.0098276215424954
0.0090653766977906
0.0082960126979835
0.0075202789306946
0.0067393189840963
0.0059542461582469
0.0051659936720528
0.0043753698415611
0.0035831713853802
0.0027902484133192
0.0019975073154131
0.0012058886216916
0.00041634793854884
-0.0003701534180789
-0.001152652728188
-0.0019301880314102
-0.0027018011391807
-0.003466540811042
-0.0042234662595043
-0.0049716484174239
-0.005710175391507
-0.0064381565622602
-0.0071547297539703
-0.0078590600046276
-0.0085503498587912
-0.0092278308708059
-0.0098907825034732
-0.010538508398542
-0.01117037745378
-0.011785765848295
-0.012384148959659
-0.012964964483727
-0.013527821962023
-0.014072185538533
-0.014597854854019
-0.015104233485437
-0.015591434643685
-0.016058589435207
-0.01650638576786
-0.016933120640369
-0.017340461316099
-0.017724003721805
-0.018085709459569
-0.018409587835251
0.015104874327106
0.014346159305568
0.013550259010304
0.012741951775555
0.011932842006232
0.011123427655348
0.010310263612026
0.0094906822110444
0.0086640557958025
0.0078312155947678
0.0069935192506013
0.0061522256659122
0.0053082992716995
0.0044625115819149
0.0036156158738439
0.0027684414998136
0.0019218942113896
0.0010769221958486
0.00023448900303192
-0.00060443815057887
-0.001438891945327
-0.0022679053740742
-0.0030905134918014
-0.0039057557148168
-0.0047126807462086
-0.0055103522483369
-0.006297853493508
-0.0070742891341846
-0.0078387940661415
-0.0085905297762179
-0.0093286980907239
-0.010052527074913
-0.010761298834297
-0.011454313093318
-0.012130947825776
-0.01279057138335
-0.013432679108613
-0.014056688366935
-0.014662250103568
-0.015248776884544
-0.015816156239072
-0.016363666514586
-0.016891612395424
-0.017398825272355
-0.017886409615775
-0.018351919919177
-0.018797846219417
-0.019217674867146
-0.01961416390297
-0.019963219540081
0.016095050947272
0.01526966082542
0.014396458639892
0.0135108373731
0.01262873694996
0.011750173508529
0.010869767445631
0.0099834728096649
0.0090902315686965
0.0081910174250672
0.0072874653909521
0.0063810071267228
0.0054726341790468
0.0045630661839442
0.0036530007443651
0.0027432403476784
0.0018346876011926
0.0009282954784995
2.5030986877232e-05
-0.00087413812974628
-0.0017682458381675
-0.0026563265855134
-0.0035374165584213
-0.0044105561659781
-0.0052747963274749
-0.0061292034767749
-0.0069728650194765
-0.007804890168813
-0.0086244206893767
-0.0094306239249066
-0.010222711589772
-0.010999918624818
-0.011761542374783
-0.012506888989399
-0.013235359666515
-0.013946323665056
-0.014639313071608
-0.015313729522246
-0.015969287853504
-0.016605344801041
-0.017221910855304
-0.017818115668255
-0.018394518378478
-0.018949584222444
-0.019484956316985
-0.019997274871195
-0.020490079918851
-0.020954252244622
-0.021393579677425
-0.021773904855061
0.017222559173273
0.016321361876595
0.015359461994751
0.014385376612534
0.013420193738452
0.012463159793989
0.011506465211183
0.010544420510415
0.0095755160220353
0.0086009487327964
0.0076227020729931
0.006642406688152
0.0056610747257422
0.0046793573476967
0.0036978854258953
0.002717431622266
0.0017388954099531
0.0007632339024229
-0.00020858509575734
-0.0011755980295615
-0.0021368460568991
-0.0030913716951655
-0.0040382195389554
-0.0049764385879617
-0.0059050894721232
-0.0068232493601487
-0.0077300184926508
-0.0086245196373073
-0.0095059116439263
-0.010373378395513
-0.011226154166484
-0.0120634927115
-0.012884721166315
-0.013689164284362
-0.014476263976217
-0.015245401619131
-0.015996168377422
-0.016727958131998
-0.017440580608752
-0.018133335547054
-0.018806404262488
-0.019458745240198
-0.020091254088679
-0.020701958360896
-0.021293190398004
-0.021860484885516
-0.022408703919016
-0.022925577544117
-0.023416227115191
-0.023834317388091
0.018487335446727
0.017501531856502
0.016439615897786
0.015366075292659
0.014307995800471
0.013263470656244
0.012221691516654
0.011175051566094
0.010121594167222
0.009062844785167
0.0080012158172113
0.0069385603890387
0.005875899174697
0.0048137978995039
0.0037528128586643
0.0026936873735881
0.0016373211323615
0.00058467657180771
-0.00046327961069754
-0.0015055915848916
-0.0025413121331246
-0.0035694968566755
-0.0045892042699845
-0.0055994979750706
-0.0065994550901862
-0.0075881717716746
-0.0085647704813682
-0.0095283974913682
-0.010478240402864
-0.011413511717736
-0.012333482563519
-0.013237439252243
-0.014124756540896
-0.014994792555062
-0.015847052145767
-0.016680943723878
-0.017496147191925
-0.018292060298491
-0.019068629410553
-0.019825098876197
-0.020561884316841
-0.021277749988494
-0.021974033258668
-0.022648245241799
-0.023303595325884
-0.02393430202644
-0.024546883574199
-0.025125323926561
-0.025676463882634
-0.026139460731272
0.019890639251557
0.018811648822265
0.017638353339079
0.016454432487001
0.015293839974428
0.014153015875636
0.013017507709114
0.011877516842012
0.010730679110631
0.0095789813286931
0.0084253513765362
0.0072718827716375
0.0061195881152593
0.0049689297125981
0.0038203843419148
0.0026746711941319
0.0015326964447875
0.00039543108208073
-0.00073615924424321
-0.0018611286284531
-0.00297854451254
-0.0040874789635252
-0.0051870085629565
-0.0062762168010923
-0.0073542039532263
-0.0084200936595329
-0.0094730404139993
-0.010512224461884
-0.011536874385483
-0.012546243824045
-0.013539656774322
-0.014516447365426
-0.015476058623571
-0.016417899499359
-0.017341565623615
-0.018246509971956
-0.019132539060336
-0.019999069082418
-0.020846237926686
-0.021673237539398
-0.022480802071654
-0.02326747568617
-0.024035175584713
-0.024780805076276
-0.02550868980192
-0.026211490706332
-0.026897796325889
-0.027547179013682
-0.02816869805527
-0.028684464592002
0.021434553969421
0.020253950806743
0.018957809318796
0.017652622345246
0.016380077190395
0.015134317579149
0.013896522273654
0.012654440350296
0.011405386841645
0.010151973239862
0.0088977338136472
0.0076450109751684
0.0063947841886718
0.0051473955663537
0.003903243679889
0.002663033938087
0.0014276892039402
0.00019819419156181
-0.0010244857426714
-0.0022394153351701
-0.0034456777028903
-0.0046423626764306
-0.0058285668922781
-0.0070033971660664
-0.0081659820712751
-0.009315482142146
-0.010451094787271
-0.011572044191142
-0.012677612116475
-0.013767106670304
-0.014839922425855
-0.015895457819682
-0.016933248474411
-0.017952773032536
-0.018953751221854
-0.019935701092322
-0.02089860401999
-0.021841911112427
-0.022766023017239
-0.023670082251579
-0.024555252061779
-0.025419824843028
-0.026266478003946
-0.027091398123015
-0.027900335003253
-0.02868410874997
-0.02945390144966
-0.03018412319691
-0.030886705792746
-0.031463942948733
0.023121567623257
0.021831046097506
0.020400478749146
0.018963202799419
0.017569458176937
0.016210280686278
0.01486168390062
0.013508736890073
0.012148580262407
0.010784645226255
0.009421160994436
0.0080607136884624
0.0067042187577714
0.0053518837462534
0.0040040371024684
0.0026613882120765
0.0013248904749796
-4.4506154027255e-06
-0.0013256672232128
-0.0026378340627779
-0.0039400495804177
-0.0052314204756262
-0.0065110615965183
-0.0077781019169398
-0.0090316978840548
-0.010271061841823
-0.011495446647297
-0.012704128947203
-0.013896455609963
-0.015071802136234
-0.016229653122831
-0.017369488922506
-0.018490965210226
-0.019593650984581
-0.020677431054492
-0.021741909705793
-0.022787303682939
-0.023813116319435
-0.024820103444466
-0.025807358661606
-0.026776618642561
-0.027725882706573
-0.028658822188013
-0.02957077263726
-0.030469302780425
-0.031343056895643
-0.032206481818126
-0.033027967670978
-0.033823211412016
-0.034471635666293
0.024954134160223
0.023545517903912
0.021968882375007
0.020388840764288
0.018864905417869
0.017383995856286
0.015916104780737
0.014443454767782
0.01296323365469
0.011479917237139
0.0099985093656832
0.0085218165097263
0.0070506508616671
0.005585077667537
0.0041253750521223
0.0026722813928955
0.0012267989638431
-0.00021003635398017
-0.0016372500756301
-0.0030539242385267
-0.0044591717801247
-0.0058521176399682
-0.007231894403836
-0.0085976330300475
-0.0099484686188587
-0.011283753643613
-0.012602793417395
-0.013904912647643
-0.015189535527759
-0.016456119886697
-0.017704260404032
-0.01893353627127
-0.020143754957485
-0.021334597251297
-0.022506161030332
-0.023658159081064
-0.024791119354457
-0.02590461202445
-0.026999868272173
-0.028075926154978
-0.029135287372091
-0.030175600515211
-0.031201838405367
-0.032208316795257
-0.033204928837161
-0.034177735001952
-0.035145291354749
-0.036068978112087
-0.036969431447849
-0.037699828211413
0.026934283625884
0.025399557665232
0.023665249839585
0.021932046455213
0.020269280059726
0.018658526497266
0.017062869364715
0.015461610838967
0.013852295236906
0.012240693077877
0.010632642836761
0.0090311248719499
0.0074368057699279
0.005849610767801
0.0042697993695488
0.0026981734937793
0.0011358066523829
-0.00041622249697799
-0.0019569227704208
-0.0034853740786874
-0.0050006960292252
-0.0065020408342287
-0.0079885978876055
-0.0094596299622469
-0.010913608429192
-0.012350648131179
-0.013769980462005
-0.015170949442834
-0.016553068240269
-0.017915889006855
-0.019259136519215
-0.020582507647979
-0.021885994646583
-0.023169413909642
-0.024433131394308
-0.025676990863796
-0.026901920799977
-0.02810756985756
-0.02929579563034
-0.030465559631555
-0.031620381909063
-0.032757472616366
-0.033883521210942
-0.034991604302142
-0.036094606850472
-0.037175510987895
-0.03825805563366
-0.039295464689691
-0.040314813928794
-0.041139344190268
0.029063224388459
0.027394605707963
0.025491222510115
0.023594932837714
0.021785178956404
0.02003672541039
0.018304864113867
0.016566039537317
0.014818561876607
0.013069758699774
0.011326330187901
0.0095913584194846
0.0078653208741097
0.0061480217163506
0.0044397508316809
0.0027414150947285
0.0010541840342682
-0.00062080568655559
-0.0022825325163475
-0.0039300529076964
-0.0055624591358438
-0.0071788520023184
-0.0087783531350781
-0.010360085177393
-0.011924108004691
-0.013468867651531
-0.014993936441503
-0.016498876659438
-0.017983328146481
-0.019446953915676
-0.020889630246102
-0.022311195324795
-0.023711859966371
-0.025091606536031
-0.02645112084804
-0.027790411749412
-0.029110899861048
-0.030412331853606
-0.031697359549142
-0.032964838879886
-0.034219618466653
-0.035458336448501
-0.036689944946777
-0.0379059686865
-0.039123189957967
-0.040320895871121
-0.041529444509476
-0.042692578225995
-0.043845829840311
-0.044778397712831
0.031340997142196
0.029531026652043
0.027447568352732
0.025378966174969
0.023414712856222
0.021521037401889
0.019644606684739
0.017759249228027
0.015864560962449
0.013969687882329
0.012082170136892
0.010205089395988
0.0083386985347981
0.0064827225659464
0.0046375472302885
0.0028042344370761
0.00098407634687553
-0.00082171723123663
-0.0026120788240392
-0.0043860280230932
-0.0061426274264055
-0.0078809697058748
-0.0096002061659909
-0.01129956726799
-0.012978441149372
-0.014636053291809
-0.016271885078652
-0.017885520124737
-0.019476697420126
-0.021045197895263
-0.022591060417575
-0.024114290407451
-0.025615338393747
-0.027094398504896
-0.028552513212421
-0.029989922542319
-0.031408601777811
-0.032808468983703
-0.034193102259555
-0.035561278799054
-0.036919481267773
-0.038263645319297
-0.039605634667608
-0.040934985645967
-0.042273565453508
-0.043596104554249
-0.044941511412042
-0.046242544076207
-0.047545890241629
-0.048602331106531
0.033766130928997
0.031807815258025
0.02953398239395
0.027284803474063
0.025159330191971
0.023113295936993
0.021084041969056
0.019043251991803
0.016992423647529
0.014942745171015
0.012902510029665
0.010874676150733
0.0088592553294421
0.0068559645409067
0.0048653697858214
0.0028887415318171
0.00092752297156113
-0.0010169813272201
-0.0029436353085468
-0.0048513951171265
-0.0067392644984754
-0.0086062884770838
-0.010451583120351
-0.012274345419963