/*--------------------------------*- C++ -*----------------------------------*\
| =========                 |                                                 |
| \\      /  F ield         | OpenFOAM: The Open Source CFD Toolbox           |
|  \\    /   O peration     | Version:  2112                                  |
|   \\  /    A nd           | Website:  www.openfoam.com                      |
|    \\/     M anipulation  |                                                 |
\*---------------------------------------------------------------------------*/
FoamFile
{
    version     2.0;
    format      ascii;
    arch        "LSB;label=32;scalar=64";
    class       surfaceScalarField;
    location    "18";
    object      phi;
}
// * * * * * * * * * * * * * * * * * * * * * * * * * * * * * * * * * * * * * //

dimensions      [0 3 -1 0 0 0 0];

oriented        oriented;

internalField   nonuniform List<scalar> 
43645
(
0.39512391773332
-5.0446441831992e-06
0.39513895628143
-1.5038517956705e-05
0.39516394590589
-2.498959182817e-05
0.39519889723164
-3.4951292054296e-05
0.39524381241019
-4.4915144724772e-05
0.39529867904088
-5.4866597243316e-05
0.39536347174047
-6.4792666813524e-05
0.39543815551284
-7.4683740398835e-05
0.39552268627675
-8.4530732805518e-05
0.39561701816882
-9.4331861854164e-05
0.39572110231033
-0.00010408411220753
0.39583489264379
-0.00011379030504302
0.39595832977006
-0.0001234370987451
0.39609135015178
-0.00013302035503466
0.3962338571109
-0.00014250693326206
0.39638575677716
-0.00015189964113341
0.39654690332745
-0.00016114652588921
0.39671718663337
-0.00017028328213177
0.39689640437841
-0.00017921772181196
0.39708445955285
-0.00018805515166316
0.39728106235535
-0.00019660278012402
0.3974861827316
-0.0002051203541397
0.39769936465255
-0.00021318189907746
0.39792076616783
-0.00022140149348475
0.39814958466458
-0.00022881847501874
0.398386442295
-0.00023685760861072
0.39862977541964
-0.0002433331027351
0.39888129463585
-0.00025151919438814
0.39913772524428
-0.00025643058683088
-0.00026550976729613
0.39940323503372
0.37294725454925
-9.7444060509767e-06
0.37296131624009
-2.9100158507488e-05
0.37298488051273
-4.8553813254729e-05
0.37301795018141
-6.8020909595953e-05
0.37306052280429
-8.7487717170198e-05
0.37311258869261
-0.00010693243607246
0.37317412777044
-0.00012633169627347
0.37324510991728
-0.00014566584001177
0.3733254953364
-0.00016491610591927
0.37341524315941
-0.00018407964003608
0.37351431162758
-0.00020315253677332
0.37362266416378
-0.00022214279881303
0.37374025305164
-0.00024102594537274
0.37386702752447
-0.00025979478771802
0.37400290482495
-0.0002783841946826
0.37414780493534
-0.00029679971343184
0.37430159729983
-0.00031493885320568
0.374464186224
-0.0003328721698999
0.3746353866578
-0.00035041811992897
0.37481511608485
-0.00036778454357323
0.37500310508956
-0.00038459175018711
0.37519933634783
-0.0004013515780742
0.37540337997388
-0.00041722549106106
0.37561540127024
-0.00043342275586946
0.37583463707876
-0.0004480542496034
0.37606170369759
-0.00046392419338302
0.376295109728
-0.0004767390989653
0.37653652925992
-0.00049293869231392
0.37678283925487
-0.00050274054867257
-0.00052079522511112
0.37703812474694
0.35201549677131
-1.4343603697469e-05
0.35202919738531
-4.2800720766457e-05
0.3520520211114
-7.1377487421137e-05
0.35208398440696
-9.9984153853533e-05
0.35212509379231
-0.00012859705231331
0.35217534254257
-0.0001571811373478
0.35223471118161
-0.00018570028769997
0.35230316991219
-0.000214124524339
0.35238068027947
-0.00024242642836426
0.35246720558749
-0.00027060490459457
0.35256271203912
-0.00029865894636592
0.35266717539493
-0.00032660611391961
0.35278056316231
-0.0003544136734022
0.35290284242995
-0.00038207401721321
0.35303394848891
-0.00040949021670417
0.35317382126069
-0.00043667244929111
0.35332234862634
-0.00046346618391357
0.35347945688833
-0.00048998039770392
0.3536449791232
-0.00051594032133557
0.35381885827025
-0.00054166365762341
0.35400084057422
-0.00056657402158792
0.35419093986866
-0.00059145084012041
0.35438873434416
-0.00061501993431022
0.35459443167996
-0.00063912005931827
0.35480725823388
-0.00066088077104977
0.35502789639871
-0.00068456232540295
0.35525479974099
-0.00070364240807619
0.3554897577585
-0.00072789667660156
0.35572948667596
-0.00074246943365348
-0.00076958040896775
0.35597827189378
0.33225852973244
-1.8829332345908e-05
0.33227186544128
-5.6136382987491e-05
0.33229404102726
-9.3553026579218e-05
0.33232506495174
-0.00013100803203061
0.33236494379223
-0.00016847584742832
0.33241367367918
-0.00020591097999269
0.33247123705933
-0.00024326362472274
0.33253760450945
-0.00028049193250902
0.33261273812081
-0.0003175599990453
0.33269660522667
-0.00035447197096341
0.33278918126206
-0.00039123494354527
0.33289045731096
-0.00042788212578089
0.33300042001129
-0.0004643763379121
0.33311905905865
-0.00050071302983003
0.33324633224217
-0.00053676336656646
0.33338220451848
-0.00057254469283789
0.3335265862689
-0.00060784790246124
0.33367943136671
-0.00064282546430832
0.33384059438285
-0.00067710330693167
0.33401005047856
-0.00071111972320556
0.3341875632704
-0.00074408678370326
0.3343731868581
-0.00077707439826252
0.33456650524457
-0.0008083382913766
0.33476778305791
-0.00084039784317992
0.33497622618673
-0.00086932387033117
0.33519261211705
-0.00090094822590566
0.33541531648265
-0.00092634674360145
0.33564631242776
-0.00095889259166301
0.33588211342375
-0.00097827040038291
-0.0010148606290371
0.33612739367449
0.31361043658505
-2.3208498457134e-05
0.31362342433991
-6.9124096577742e-05
0.31364498811801
-0.00011511676342951
0.31367513385856
-0.0001611537319573
0.31371386874181
-0.00020721069103126
0.31376119126205
-0.00025323346166295
0.31381708576927
-0.00029915809456512
0.31388152351321
-0.00034492964024864
0.31395446758868
-0.00039050403955617
0.31403589045636
-0.00043589480488301
0.3141257789699
-0.00048112342456817
0.31422414307008
-0.00052624619457267
0.31433099294803
-0.00057122618563932
0.31444634602255
-0.0006160660751299
0.31457018763414
-0.00066060494995795
0.31470251319262
-0.00070487022391613
0.31484326048346
-0.00074859516668498
0.31499241674416
-0.00079198169896484
0.31514986278358
-0.00083454932083505
0.31531561268714
-0.0008768696015572
0.31548945156513
-0.00091792563674968
0.31567148217246
-0.00095910498067939
0.3158612967866
-0.00099815288063674
0.3160592289494
-0.0010383299808847
0.31626446247362
-0.0010745573692401
0.31647788945039
-0.0011143751769604
0.31669779529722
-0.001146252564321
0.31692636948935
-0.0011874667575411
0.31715987954634
-0.0012117804316666
-0.001258424879885
0.31740344382444
0.2960089710967
-2.7477699656643e-05
0.29602159801618
-8.1750978530492e-05
0.29604252588666
-0.00013604459645714
0.29607176073095
-0.00019038853936282
0.29610931235681
-0.00024476228085695
0.29615518283566
-0.00029910390540564
0.29620935921932
-0.00035333444414607
0.29627181422211
-0.00040738460995087
0.29634251305037
-0.00046120283581157
0.29642143507371
-0.00051481679724416
0.29650858124146
-0.00056826956242755
0.29660398396721
-0.0006216488914109
0.2967076813037
-0.00067492349426144
0.29681972318696
-0.00072810793140861
0.29694012748323
-0.00078100922014552
0.29706892526569
-0.00083366798102273
0.29720608695809
-0.00088575683445391
0.29735163878183
-0.00093753349860765
0.29750549332979
-0.0009884038452055
0.2976677098142
-0.0010390860626924
0.29783810056149
-0.0010883163610683
0.29801682380929
-0.0011378282055963
0.29820348538184
-0.0011848144304058
0.29839849536048
-0.0012333399366535
0.29860101916164
-0.0012770811474469
0.29881207237855
-0.0013254283706619
0.29902984947547
-0.0013640296378234
0.2992567686282
-0.001414385886855
0.2994888415473
-0.0014438533279799
-0.001501233062408
0.29973164975399
0.27939537834808
-3.1621497229302e-05
0.27940759591289
-9.3968511171497e-05
0.27942780790644
-0.00015625655802064
0.27945602191791
-0.00021860251938572
0.27949225177016
-0.0002809921024654
0.27953650442848
-0.00034335653392514
0.27958877082417
-0.00040560081096415
0.27964902622688
-0.00046763998469099
0.27971723923543
-0.00052941581737945
0.27979339792037
-0.00059097545610927
0.2798775198848
-0.00065239150175908
0.27996966330752
-0.00071379228990853
0.28006989806307
-0.00077515822651442
0.28017831093408
-0.00083652077987507
0.28029495705529
-0.00089765531962631
0.2804199080029
-0.00095861890751234
0.28055317218478
-0.0010190209958325
0.28069482007874
-0.0010791813725074
0.28084480217479
-0.0011383859216192
0.28100322840725
-0.0011975122757496
0.28116994533423
-0.0012550332688709
0.28134517217265
-0.0013130550248712
0.28152853648997
-0.0013681787286115
0.28172052944529
-0.0014253328727159
0.28192030797784
-0.001476859660619
0.28212901353533
-0.001534133908481
0.28234476301014
-0.0015797790927142
0.28257020141353
-0.0016398242702671
0.28280110467872
-0.0016747565736711
-0.0017436382948864
0.28304350993208
0.26371420364212
-3.5615662457447e-05
0.26372593583214
-0.00010570067287031
0.26374531121911
-0.00017563191684003
0.26377233923506
-0.00024563050762761
0.26380703840364
-0.00031569124397364
0.26384942157762
-0.00038573968148833
0.2638994846517
-0.00045566385938383
0.26395720653783
-0.0005253618458464
0.26402256052092
-0.00059476977629874
0.26409554504607
-0.00066395995780144
0.26417619664492
-0.00073304307795893
0.26426460203669
-0.0008021976597371
0.2643608663234
-0.0008714224920445
0.26446511678922
-0.00094077122516488
0.26457745013619
-0.0010099886467462
0.26469798269816
-0.0010791514501639
0.26482676610242
-0.0011478043813329
0.26496391980932
-0.0012163350610497
0.26510943868842
-0.0012839047827856
0.26526348828297
-0.0013515618526089
0.26542595763002
-0.0014175025985002
0.26559713113005
-0.0014842285075917
0.26577666906175
-0.0015477166431438
0.26596514553411
-0.0016138093278889
0.26616172503254
-0.0016734391418843
0.26636767086518
-0.0017400797238481
0.26658104784932
-0.0017931560595271
0.26680471094731
-0.0018634873510315
0.26703424415145
-0.0019042897611278
-0.0019854915869159
0.26727609746129
0.2489131081432
-3.9431093090999e-05
0.24892426264838
-0.00011685515431842
0.24894265628202
-0.00019402552690582
0.24896829962765
-0.00027127383004684
0.24900121624661
-0.00034860784026434
0.24904142551573
-0.00042594892845466
0.24908892903372
-0.00050316735583116
0.24914371020403
-0.00058014299515475
0.24920574811582
-0.00065680766773729
0.24927505295125
-0.00073326477345023
0.24935168201548
-0.00080967212304823
0.24943575269039
-0.00088626831606289
0.249527407978
-0.00096307776170136
0.24962681842055
-0.0010401816502633
0.2497341258818
-0.0011172960911025
0.24984949484488
-0.0011945203967666
0.24997302499885
-0.0012713345192925
0.25010488868324
-0.0013481987297354
0.2502451317173
-0.0014241478014847
0.25039397915058
-0.0015004092707253
0.25055137165755
-0.0015748950905203
0.25071766153394
-0.001650518369121
0.25089255532599
-0.0017226104204376
0.25107670888223
-0.0017979628693525
0.25126931565183
-0.0018660458967404
0.25147175010996
-0.001942514167133
0.25168206183668
-0.0020034677713777
0.25190328389252
-0.0020847093921146
0.25213087588093
-0.0021318817352663
-0.0022262414637997
0.25237162577314
0.23494269201182
-4.303552556359e-05
0.23495317327727
-0.0001273363994223
0.23497043102136
-0.00021128325075905
0.23499447736109
-0.00029532014980744
0.23502534110288
-0.00037947156246151
0.23506304843807
-0.00046365624441997
0.23510760721716
-0.00054772611613
0.23515900608979
-0.00063154184936167
0.23521723087931
-0.00071503243931364
0.23528230447911
-0.0007983383556984
0.23535430616941
-0.00088167379628157
0.23543338512088
-0.00096534725086073
0.23551972388538
-0.0010494165100217
0.2356135378713
-0.0011339956203713
0.23571501672354
-0.0012187749279787
0.23582437531273
-0.0013038789709263
0.23594176550488
-0.0013887246967975
0.23606741526871
-0.0014738484791903
0.23620142766665
-0.0015581601853653
0.23634408986877
-0.0016430714589661
0.23649540388416
-0.001726209092292
0.23665579078841
-0.0018109052598653
0.23682501888299
-0.0018918385016868
0.23700382145612
-0.0019767654292201
0.23719144731155
-0.0020536717390381
0.23738936492839
-0.0021404317708652
0.23759565605979
-0.0022097588897758
0.23781348638112
-0.0023025397006732
0.23803828070211
-0.0023566760439997
-0.0024650215700947
0.23827706082148
0.2217563311167
-4.6396836159794e-05
0.22176604647156
-0.00013705173732181
0.22178201705722
-0.00022725381952962
0.22180425704352
-0.000317560119392
0.22183280070632
-0.000408015208822
0.22186768114826
-0.00049853667015528
0.22190891257791
-0.0005889575298801
0.22195648904529
-0.00067911830106716
0.22201040358689
-0.00076894696557338
0.22207069235581
-0.00085862710952086
0.22213745711186
-0.00094843853757588
0.22221087890452
-0.0010387690290211
0.22229118025357
-0.0011297178449294
0.22237862158318
-0.0012214369360793
0.22247344168068
-0.0013135950119145
0.22257590662413
-0.0014063439010485
0.2226862235226
-0.0014990415822368
0.22280467727455
-0.0015923022182977
0.22293143380143
-0.0016849166996676
0.22306684341731
-0.0017784810624138
0.2232109792042
-0.0018703448669626
0.22336432993691
-0.0019642559804555
0.22352674272403
-0.0020542512768631
0.22369902076816
-0.0021490434614731
0.22388049874389
-0.0022351497030384
0.22407271604337
-0.0023326490586721
0.22427384360113
-0.0024108864360081
0.2244871216608
-0.0025158177490709
0.22470805030111
-0.002577604673528
-0.0027007257601997
0.22494375450272
0.20931002044051
-4.9485313028425e-05
0.20931888490531
-0.00014591618770634
0.209333429705
-0.00024179860483666
0.20935367134122
-0.00033780174131251
0.20937964941512
-0.00043399326859376
0.2094114036378
-0.00053029087880719
0.20944895432547
-0.00062650820370221
0.20949230073874
-0.00072246470059923
0.20954144297971
-0.00081808919299973
0.20959642993401
-0.00091361405038652
0.20965738531829
-0.0010093939086395
0.2097245211855
-0.0011059048831507
0.20979809922092
-0.0012032958674922
0.2098784235313
-0.0013017612337602
0.20996578189414
-0.0014009533622888
0.21006049076495
-0.0015010527595479
0.21016281422453
-0.0016013650297434
0.21027309371367
-0.0017025816955115
0.21039156257254
-0.0018033855468367
0.21051863344594
-0.001905551924256
0.21065445980966
-0.0020061712193254
0.21079959483028
-0.0021093909898578
0.21095398224165
-0.0022086386771976
0.21111848456063
-0.0023135457695399
0.21129255628125
-0.0024092214129444
0.21147777889233
-0.0025178716591591
0.21167247776278
-0.0026055852960729
0.2118798983248
-0.0027232383010158
0.21209574402417
-0.0027934503633364
-0.0029320695721185
0.21232708784626
0.19756222651775
-5.2275289275361e-05
0.19757016789532
-0.00015385755306482
0.19758316937038
-0.00025480006766844
0.19760124969088
-0.00035588204960277
0.19762445331633
-0.00045719688191004
0.19765282585314
-0.00055866340351104
0.19768639302435
-0.0006600753628815
0.19772515862163
-0.00076123028586713
0.19776912915609
-0.00086205971552433
0.19781836512387
-0.0009628500062596
0.19787301059593
-0.0010640393688932
0.19793330607601
-0.001166200351454
0.19799955026597
-0.0012695400458125
0.19807208827966
-0.0013742992358744
0.19815125523567
-0.0014801203068667
0.1982374153719
-0.0015872128844239
0.19833088985685
-0.0016948395035198
0.19843207441644
-0.0018037662440239
0.19854127295266
-0.0019125840721688
0.19865895758526
-0.002023236546082
0.19878537052202
-0.0021325841455136
0.19892112370062
-0.0022451441580093
0.19906627547725
-0.0023537904435723
0.19922173389087
-0.0024690041730427
0.19938710941781
-0.0025745969299767
0.1995639917963
-0.0026947540278939
0.19975093279456
-0.0027925262848
0.19995110346934
-0.0029234089666
0.20016055472578
-0.0030029016110509
-0.0031576458111781
0.20038613097411
0.18647374851925
-5.4746428583658e-05
0.18648071092547
-0.00016081994866582
0.18649207861886
-0.00026616775037015
0.1865078722539
-0.00037167567391084
0.18652814026091
-0.00047746487820836
0.18655293301488
-0.00058345614673433
0.18658228052311
-0.00068942286038081
0.18661618997087
-0.00079513972284064
0.18665467308073
-0.00090054281460978
0.18669780010819
-0.0010059770228983
0.18674573299973
-0.0011119722496404
0.1867987371345
-0.0012192044753886
0.18685714442149
-0.0013279473220077
0.1869213364687
-0.0014384912722892
0.18699169275203
-0.0015504765794826
0.1870686210578
-0.0016641411795131
0.18715249805737
-0.0017787164925196
0.18724376952241
-0.0018950376985797
0.18734281134278
-0.0020116258822089
0.18745015011974
-0.0021305753128472
0.18756612367093
-0.0022485576866909
0.18769139460384
-0.0023704150810743
0.18782615308783
-0.0024885489179203
0.18797133594143
-0.0026141870171876
0.18812674697582
-0.0027300079551316
0.18829394564253
-0.0028619526855813
0.188471786995
-0.0029703676284776
0.18866327952452
-0.0031149014876604
0.1888649784267
-0.0032046005052197
-0.0033759712355972
0.18908330385963
0.17600758692809
-5.6884587878731e-05
0.17601353335314
-0.00016676636426121
0.17602320781836
-0.00027584220602533
0.17603663227861
-0.00038510012453239
0.17605385804596
-0.00049469063592295
0.17607493882751
-0.00060453691858856
0.17609990743601
-0.00071439145917157
0.17612877292817
-0.00082400520522456
0.17616155055322
-0.00093332042985708
0.1761983178441
-0.0010427443039034
0.17623925130239
-0.0011529056980319
0.17628463657012
-0.0012645897331413
0.17633483384793
-0.0013781445898242
0.17639025534624
-0.0014939127605624
0.17645131990973
-0.0016115411329429
0.17651847315304
-0.001731294412788
0.17659214403877
-0.0018523873682958
0.17667282229866
-0.0019757159485788
0.1767609552352
-0.0020997588089954
0.17685711683224
-0.0022267369002765
0.17696174545234
-0.0023531862973779
0.1770755439436
-0.0024842135631133
0.17719884994349
-0.0026118549088223
0.17733260926755
-0.0027479463324915
0.17747685592647
-0.0028742546055523
0.17763307670554
-0.0030181734563779
0.17780050987281
-0.0031378007877124
0.17798190598369
-0.0032962975908409
0.17817449133463
-0.0033971858488327
-0.0035855307243121
0.17838405083118
0.16612881958944
-5.8682189266398e-05
0.1661337326575
-0.00017167942361203
0.16614168698041
-0.00028379652011774
0.16615270505022
-0.00039611818546874
0.16616683966303
-0.00050882523986191
0.16618414618676
-0.00062184343342972
0.16620465850637
-0.00073490376992102
0.1662283857463
-0.00084773243624879
0.16625534462552
-0.00096027930019531
0.16628561699894
-0.0010730166683855
0.16631938990667
-0.0011866785968029
0.16635696383662
-0.0013021636540402
0.16639872130114
-0.0014199020452606
0.16644509819372
-0.0015402896439795
0.16649654647883
-0.0016629894088685
0.16655354213566
-0.0017882900604006
0.16661656135385
-0.0019154065773198
0.16668613033321
-0.0020452849188194
0.16676276501869
-0.0021763934855022
0.16684707778801
-0.0023110496607875
0.16693960999464
-0.0024457184954204
0.16704109232203
-0.0025856958821751
0.16715202310764
-0.0027227856863928
0.16727333511634
-0.0028692583334482
0.16740532739429
-0.0030062468760507
0.16754936766239
-0.0031622137173111
0.16770515795884
-0.0032935910772374
0.16787509029611
-0.003466229921488
0.16805723568883
-0.0035793312351942
-0.0037848145619163
0.16825651953333
0.15680448474382
-6.0138235473684e-05
0.1568083667624
-0.00017556143391726
0.15681460629003
-0.00029003603943047
0.15682322543561
-0.00040473732275
0.15683427711221
-0.00051987690828925
0.15684781659102
-0.00063538290415639
0.15686387694768
-0.00075096411864094
0.15688246544595
-0.00086632092668049
0.15690359797672
-0.00098141182325171
0.1569273574691
-0.0010967761530881
0.15695393693389
-0.0012132580539659
0.15698364574592
-0.0013318724584078
0.15701688186677
-0.0014531381584134
0.15705409727711
-0.0015775050465463
0.15709576955168
-0.001704661675624
0.15714239693421
-0.0018349174350607
0.15719449566319
-0.0019675052984635
0.15725261977786
-0.0021034090257131
0.15731734863674
-0.0022411223367562
0.15738932302864
-0.0023830240452538
0.15746918606314
-0.0025255815227599
0.15755768285059
-0.0026741926628039
0.15765548174025
-0.002820584569588
0.15776347980986
-0.00297725639699
0.15788227259066
-0.0031250396511323
0.15801305923313
-0.0032930003544265
0.15815608408496
-0.0034366159239578
0.15831326924263
-0.0036234150742978
0.15848372233841
-0.003749784326228
-0.0039723532730164
0.15867126105486
0.14800347070492
-6.1258002881961e-05
0.14800634226632
-0.00017843298708758
0.14801090252791
-0.00029459629287389
0.14801717233966
-0.00041100712659517
0.14802520323572
-0.00052790779679048
0.1480350485505
-0.00064522821172333
0.14804673864296
-0.00076265420429602
0.14806027703394
-0.00087985931119235
0.14807567646787
-0.00099681125106642
0.14809301768647
-0.0011141173657979
0.14811249479133
-0.0012327351531241
0.14813441987984
-0.0013537975412743
0.1481591987832
-0.0014779170561611
0.14818729173585
-0.0016055979935293
0.14821919315019
-0.0017365630842608
0.14825541536967
-0.0018711396487749
0.14829650543389
-0.0020085953569542
0.1483430369349
-0.0021499405210483
0.14839564334573
-0.0022937287420727
0.14845498550485
-0.0024423661991193
0.14852180094404
-0.00259239695703
0.14859683810566
-0.0027492298199279
0.14868093536611
-0.0029046818260085
0.14877493530681
-0.0030712563341848
0.14887975421328
-0.0032298585545634
0.14899637578001
-0.0034096219185604
0.14912566624277
-0.0035659063844068
0.14926893734192
-0.0037666861713196
0.149426539269
-0.0039073862510475
-0.0041467191400452
0.14960090513896
0.1396964117443
-6.2052479102121e-05
0.13969831011965
-0.00018033135335386
0.1397012536012
-0.00029753976554151
0.13970526116127
-0.00041501467838981
0.13971038155851
-0.00053302818651894
0.13971666447269
-0.00065151111917239
0.13972413584918
-0.00077012557488314
0.13973279366995
-0.00088851712678151
0.1397426451798
-0.0010066627564279
0.1397537657166
-0.0011252378986065
0.13976634556347
-0.0012453149963939
0.13978069354861
-0.0013681455230337
0.13979721550578
-0.0014944390100625
0.1398163723445
-0.0016247548289796
0.13983866546898
-0.0017588562054632
0.13986461383484
-0.0018970880113117
0.13989478328144
-0.002038764800247
0.13992976082101
-0.0021849180573975
0.13997021879365
-0.0023341867116766
0.14001683521402
-0.0024889826167732
0.14007042339483
-0.0026459851355372
0.14013173681322
-0.0028105432365673
0.14020176177065
-0.0029747067823083
0.14028128660824
-0.0031507811713189
0.14037153716358
-0.0033201091100817
0.14047326755872
-0.0035113523144697
0.14058803387
-0.0036806726968074
0.14071638423793
-0.0038950365404753
0.14086023727445
-0.0040512392883909
-0.0043063584594535
0.14101987659381
0.13185558910836
-6.2536847234821e-05
0.13185656549143
-0.00018130772427652
0.13185797789029
-0.00029895215237078
0.1318598424
-0.00041687917707286
0.13186220337271
-0.00053538914954757
0.13186510553776
-0.00065441327594543
0.13186856944159
-0.00077358947183021
0.1318725860839
-0.00089253376343557
0.13187715507877
-0.001011231746742
0.13188234303627
-0.0011304258523808
0.13188833158341
-0.0012513035404567
0.13189542032199
-0.0013752342589096
0.13190400751849
-0.0015030262040976
0.13191454743725
-0.0016352947453472
0.13192753860506
-0.0017718473709012
0.13194349981806
-0.0019130492219284
0.13196300183128
-0.0020582668111168
0.13198664138559
-0.0022085576094808
0.13201510725996
-0.0023626525840765
0.13204910104536
-0.0025229764005986
0.13208947352529
-0.0026863576144522
0.13213701421649
-0.0028580839274614
0.13219279033279
-0.0030304828991178
0.1322576055132
-0.0032155963531521
0.13233286875936
-0.0033953723585443
0.13241921984748
-0.0035977034057155
0.13251875245177
-0.0037802053047338
0.13263145966527
-0.0040077437577126
0.13276076137994
-0.0041805410061547
-0.0044502654217019
0.13290466834008
0.12445483817819
-6.272866985014e-05
0.12445495219938
-0.00018142172598236
0.12445493675445
-0.00029893668744211
0.12445480326286
-0.00041674566667238
0.12445458878121
-0.00053517465099733
0.12445433194943
-0.00065415642932033
0.12445404736297
-0.00077330487253101
0.12445371846395
-0.00089220485333026
0.12445333652007
-0.001010849793278
0.12445295619727
-0.0011300455211586
0.12445274550051
-0.0012510928361365
0.12445298795875
-0.0013754767101498
0.12445406769828
-0.0015041059369729
0.12445642456989
-0.0016376516104652
0.12446054668957
-0.0017759694841829
0.124466944449
-0.001919446975018
0.12447618223844
-0.0020675045943375
0.12448886044013
-0.0022212358051568
0.1245056619369
-0.0023794540752163
0.12452731963566
-0.0025446340943038
0.12455466928455
-0.0027137072590603
0.12458859327301
-0.002892007912613
0.12463011322372
-0.0030720028476472
0.12468024249602
-0.003265725624537
0.12474025867825
-0.0034553885410981
0.12481112795271
-0.0036685726816912
0.12489470712757
-0.0038637844819529
0.12499135352329
-0.0041043901560537
0.12510503072854
-0.0042942182133203
-0.004578194148577
0.12523295945485
0.117469462879
-6.2647742878058e-05
0.11746877862085
-0.0001807374348965
0.11746745098372
-0.00029760901596084
0.11746548280096
-0.00041477745068283
0.11746290021782
-0.00053259203688657
0.1174597365792
-0.00065099276225581
0.11745599881417
-0.00076956708153655
0.11745166062171
-0.00088786663705163
0.11744670685448
-0.0010058960040091
0.11744117929096
-0.0011245179369853
0.11743522832472
-0.0012451418502507
0.11742911312719
-0.0013693614936697
0.11742319790332
-0.0014981906946018
0.11741789898121
-0.0016323526701376
0.1174136912014
-0.0017717616863652
0.11741106371153
-0.0019168194673412
0.11741057319873
-0.0020670140639871
0.11741280433765
-0.0022234669269395
0.11741843275171
-0.0023850824727576
0.11742820152821
-0.0025544028551596
0.11744291336245
-0.0027284190788015
0.11746355483251
-0.0029126493696065
0.11749099445762
-0.0030994424612655
0.11752665465603
-0.0033013858132358
0.117571276222
-0.0035000100991111
0.117627046633
-0.003724343086505
0.11769400628288
-0.0039307441270486
0.11777520908117
-0.0041855929502848
0.11787045975205
-0.004389468879754
-0.0046920688458378
0.11798433445586
0.11087616030875
-6.232310972395e-05
0.11087475298363
-0.00017933005827627
0.11087223819601
-0.00029509417472982
0.1108686076493
-0.0004111468514695
0.11086387666587
-0.00052786100339732
0.1108580752782
-0.00064519132733836
0.1108512039306
-0.00076269568934578
0.1108432226243
-0.00087988528844875
0.11083411058909
-0.00099678392835048
0.11082389421445
-0.0011143015232987
0.11081270294832
-0.0012339505461202
0.11080076596255
-0.0013574244706341
0.11078842386551
-0.0014858485608319
0.11077606225632
-0.0016199910246196
0.11076414284189
-0.0017598422359614
0.11075311798723
-0.0019057945770865
0.11074354516078
-0.0020574412024594
0.1107359571166
-0.0022158788483736
0.11073105648016
-0.0023801818029587
0.11072951723012
-0.0025528635730973
0.11073219845132
-0.0027311002697543
0.11074003340654
-0.0029204842966622
0.11075388603979
-0.0031132950686559
0.1107753681324
-0.0033228678824017
0.11080470996785
-0.0035293519136301
0.1108457064159
-0.0037653395162028
0.11089566348559
-0.0039807011806801
0.11096412150352
-0.0042540509536993
0.11103691528359
-0.0044622626455345
-0.004794842866694
0.11113968932162
0.10465293612145
-6.179320063367e-05
0.10465091608739
-0.00017730995298485
0.10464735370435
-0.00029153171911915
0.10464223556821
-0.0004060286441337
0.10463558944536
-0.00052121481185795
0.10462742872979
-0.00063703054580972
0.10461773209514
-0.00075299899127745
0.1046064763079
-0.00086862943987282
0.10459364322683
-0.00098395078760077
0.10457923057958
-0.0010998888175967
0.10456333220174
-0.0012180521107463
0.10454613983105
-0.0013402320431053
0.10452796734125
-0.0014676760147359
0.1045091705656
-0.0016011941931875
0.10449019960919
-0.0017408712242749
0.104471463882
-0.0018870587952394
0.10445352847719
-0.0020395057437765
0.10443683928074
-0.0021991895992051
0.10442216750319
-0.0023655099742154
0.10441000645405
-0.0025407024749052
0.10440145646674
-0.0027225502359983
0.10439703859368
-0.0029160663802747
0.10439822895999
-0.0031144853948629
0.10440571467809
-0.0033303535637688
0.10442091094024
-0.0035445481424832
0.10444604546674
-0.0037904740130689
0.10447993376839
-0.0040145894561127
0.10453455330853
-0.00430867047018
0.10459090600099
-0.0045186153153368
-0.004887160348156
0.10468322350937
0.098778976957128
-6.1051812187134e-05
0.098776476707309
-0.00017480961902945
0.098772002086178
-0.00028705701335965
0.098765561339117
-0.00039958781396758
0.098757227103366
-0.0005128804952392
0.098747075268731
-0.00062687863259473
0.098734851211877
-0.00074077485781967
0.098720675484832
-0.00085445363774093
0.098704541098314
-0.00096781632708471
0.098686421622588
-0.0010817692686046
0.098666367053801
-0.0011979974692193
0.098644520356607
-0.0013183852735569
0.098621155345518
-0.0014443109316774
0.098596591812082
-0.001576630588165
0.098571257111144
-0.0017155364522816
0.098545526742121
-0.0018613283558317
0.098519963296952
-0.0020139422292736
0.098494933216309
-0.0021741594507328
0.098471251565449
-0.0023418282578017
0.098449215284265
-0.0025186661312297
0.098430203431649
-0.002703538324817
0.09841413726314
-0.0029000001576004
0.098403567954157
-0.0031039160363648
0.098397166836049
-0.0033239524007777
0.098400033705647
-0.0035474149719693
0.098407477786273
-0.0037979180586426
0.098429227277785
-0.0040363389173431
0.098454862218185
-0.0043343053835226
0.098499102249016
-0.0045628553195359
0.098615822814873
-0.005003880882734
0.3947649986338
0.0046382364223078
0.39028631836961
0.0044786802862024
0.38597171068235
0.0043146077092462
0.38182557974617
0.0041461309584232
0.37785218895218
0.003973390816564
0.37405566117759
0.0037965277975994
0.37043997113465
0.0036156900663692
0.36700893628229
0.0034310348762594
0.36376620995304
0.0032427263535434
0.36071527661156
0.0030509333662012
0.35785944873256
0.0028558279040369
0.35520186350365
0.0026575852542979
0.35274547901318
0.0024563845160907
0.35049306938441
0.0022524096546331
0.34844721980962
0.0020458496007815
0.34661032141392
0.0018368984218249
0.34498456658507
0.0016257548549781
0.34357194457706
0.0014126220341796
0.34237423755176
0.0011977070513673
0.34139301696193
0.00098122061584166
0.34062963940495
0.00076337758280227
0.34008524127076
0.00054439815988952
0.33976072532809
0.00032451596813716
0.3396566927857
0.00010403256770365
0.33977379839481
-0.0001171055840549
0.34011234206491
-0.00033854364518472
0.34067226723212
-0.00055992514254927
0.34145336895174
-0.00078110169509377
0.34245521909577
-0.0010018501197419
0.34367715706757
-0.0012219379476336
0.34511828850347
-0.0014411314119607