/*--------------------------------*- C++ -*----------------------------------*\
| =========                 |                                                 |
| \\      /  F ield         | OpenFOAM: The Open Source CFD Toolbox           |
|  \\    /   O peration     | Version:  2112                                  |
|   \\  /    A nd           | Website:  www.openfoam.com                      |
|    \\/     M anipulation  |                                                 |
\*---------------------------------------------------------------------------*/
FoamFile
{
    version     2.0;
    format      ascii;
    arch        "LSB;label=32;scalar=64";
    class       volVectorField;
    location    "18";
    object      U;
}
// * * * * * * * * * * * * * * * * * * * * * * * * * * * * * * * * * * * * * //

dimensions      [0 1 -1 0 0 0 0];

internalField   nonuniform List<vector> 
22000
(
(1.000001080839 -2.6255518930827e-05 0)
(1.0000271732244 -7.834207971415e-05 0)
(1.0000771545889 -0.00013032582113551 0)
(1.0001522007369 -0.00018228746870736 0)
(1.0002528196288 -0.00023421003969244 0)
(1.0003790066596 -0.00028604422367239 0)
(1.0005305260899 -0.00033773482782152 0)
(1.0007071404029 -0.000389236020675 0)
(1.0009086819045 -0.00044050065589402 0)
(1.0011350433403 -0.00049151747607033 0)
(1.0013861220692 -0.00054226714216525 0)
(1.0016618264199 -0.00059276123647974 0)
(1.0019620252679 -0.00064292766819776 0)
(1.0022865843961 -0.00069274522433038 0)
(1.0026352763958 -0.00074204086301772 0)
(1.0030078897068 -0.00079083235506549 0)
(1.0034040699238 -0.00083884695957794 0)
(1.0038235607983 -0.00088627607978865 0)
(1.0042658682911 -0.00093263188811934 0)
(1.0047307545577 -0.0009784756300219 0)
(1.0052175297939 -0.0010227834855595 0)
(1.0057260730896 -0.001066940489284 0)
(1.0062553690157 -0.0011086783701255 0)
(1.0068056015283 -0.0011512759358244 0)
(1.0073751700921 -0.0011896049534835 0)
(1.0079649393373 -0.0012312871903937 0)
(1.0085722092161 -0.0012646263329396 0)
(1.0091992623596 -0.0013071791323548 0)
(1.009841292117 -0.001332198716041 0)
(1.0105034825278 -0.0013799450286724 0)
(1.0000005317001 -7.7214101755172e-05 0)
(1.0000265071308 -0.0002304992454045 0)
(1.0000765397644 -0.00038363379213564 0)
(1.0001517520921 -0.0005368102514603 0)
(1.0002527064624 -0.00068994202207051 0)
(1.0003794704301 -0.00084286466837867 0)
(1.0005318496508 -0.00099540526993322 0)
(1.0007096256029 -0.0011474203803545 0)
(1.0009126244139 -0.0012987673976741 0)
(1.0011407457028 -0.0014494171726222 0)
(1.0013938791381 -0.0015993254531936 0)
(1.001671966504 -0.0017485383906529 0)
(1.0019748698512 -0.0018968540131058 0)
(1.0023025216175 -0.0020442082135816 0)
(1.0026546566079 -0.0021900924340144 0)
(1.0030311784184 -0.0023345456863496 0)
(1.0034316170895 -0.0024767720581174 0)
(1.0038559386429 -0.002617312527911 0)
(1.0043033696848 -0.0027547591002713 0)
(1.0047741323579 -0.0028907138768308 0)
(1.00526690699 -0.0030222370397032 0)
(1.0057825456843 -0.0031532825214214 0)
(1.006318650762 -0.0032773621678182 0)
(1.0068774786066 -0.0034038242427678 0)
(1.0074544460541 -0.0035180508953898 0)
(1.0080548397372 -0.0036417271123838 0)
(1.0086695770418 -0.0037416225503726 0)
(1.0093104027125 -0.0038675484966084 0)
(1.009958922674 -0.0039437715280488 0)
(1.0106406352557 -0.004084140964332 0)
(1.0000005736836 -0.00012590399179424 0)
(1.0000273674519 -0.00037580757130839 0)
(1.0000788319974 -0.00062560890640874 0)
(1.0001560017229 -0.00087561389174118 0)
(1.0002593866845 -0.0011256497938947 0)
(1.0003890538115 -0.0013754227507837 0)
(1.0005448218144 -0.0016246283219324 0)
(1.000726491329 -0.0018730144637255 0)
(1.0009338833372 -0.0021203426975828 0)
(1.0011669104228 -0.0023665846434653 0)
(1.001425450718 -0.0026117019137035 0)
(1.0017094952965 -0.0028558112718954 0)
(1.0020188965016 -0.0030986055099135 0)
(1.0023536905603 -0.0033399977119359 0)
(1.0027135588613 -0.0035791461209011 0)
(1.0030985879966 -0.0038161238216449 0)
(1.0035081341202 -0.0040496024659926 0)
(1.0039425181094 -0.0042804977785647 0)
(1.004400530086 -0.0045064569156639 0)
(1.0048831346876 -0.0047301749606152 0)
(1.0053879983559 -0.0049467298744789 0)
(1.0059175688902 -0.0051627554008932 0)
(1.0064671645858 -0.0053673818931594 0)
(1.0070425117439 -0.0055762789248759 0)
(1.0076339589095 -0.0057649627184889 0)
(1.0082543843315 -0.0059697622692419 0)
(1.0088835230392 -0.0061350392542185 0)
(1.0095498528975 -0.0063441972681201 0)
(1.0102103677582 -0.0064704878728283 0)
(1.0109278158139 -0.0067044338327699 0)
(1.0000006111731 -0.00017326375252594 0)
(1.0000282464615 -0.000516798987061 0)
(1.0000812556001 -0.00086016577044821 0)
(1.0001606701588 -0.0012038606989578 0)
(1.0002669809133 -0.0015476616032112 0)
(1.0004002472071 -0.0018911567432438 0)
(1.0005602805246 -0.0022339027340584 0)
(1.0007468902479 -0.0025755290134502 0)
(1.0009598842862 -0.0029157050543147 0)
(1.0011991942684 -0.0032544350321161 0)
(1.0014646851211 -0.0035917330018009 0)
(1.0017564191528 -0.0039278414199452 0)
(1.0020742374631 -0.0042623831682298 0)
(1.002418323137 -0.0045952818833271 0)
(1.002788286099 -0.0049253638515221 0)
(1.00318447155 -0.0052527615970328 0)
(1.0036059978495 -0.0055755932061585 0)
(1.0040536852601 -0.0058951969072894 0)
(1.0045257211159 -0.0062082211807932 0)
(1.0050241097775 -0.0065185528626066 0)
(1.005545110896 -0.0068191542871241 0)
(1.0060934026713 -0.0071195481660914 0)
(1.0066611273188 -0.007404172832232 0)
(1.0072588525384 -0.0076954829846417 0)
(1.0078698770544 -0.0079584275616467 0)
(1.0085176672341 -0.0082450202396183 0)
(1.0091664071847 -0.0084756359030834 0)
(1.0098679154034 -0.008769603866007 0)
(1.0105449696458 -0.0089456078728804 0)
(1.0113122499103 -0.0092760914744736 0)
(1.0000006554452 -0.00021943507151969 0)
(1.000029184926 -0.00065390388676258 0)
(1.0000838295555 -0.0010880495130257 0)
(1.0001656307788 -0.0015226149306599 0)
(1.0002750738861 -0.0019573602326111 0)
(1.0004122192307 -0.0023917719762043 0)
(1.0005768703893 -0.0028252632240377 0)
(1.0007688448575 -0.0032573343266273 0)
(1.0009879324842 -0.0036875673973193 0)
(1.0012340899292 -0.004116039998166 0)
(1.001507169577 -0.0045428797078207 0)
(1.0018073288355 -0.0049685268529655 0)
(1.0021344021754 -0.0053925798625551 0)
(1.0024887644761 -0.0058150138197901 0)
(1.0028699452276 -0.0062343212985718 0)
(1.0032786219322 -0.0066507230737646 0)
(1.0037136258276 -0.0070617532777445 0)
(1.0041764109338 -0.0074692314052468 0)
(1.0046644231925 -0.0078687359888647 0)
(1.0051809760282 -0.0082654708003366 0)
(1.0057205868434 -0.0086501087814691 0)
(1.0062907273303 -0.0090353297808389 0)
(1.0068795957523 -0.0094004779548326 0)
(1.0075038068742 -0.0097753919334747 0)
(1.0081378953561 -0.010113548724259 0)
(1.0088185262972 -0.010483995654914 0)
(1.0094905450163 -0.010781091031112 0)
(1.0102348296623 -0.011163122208785 0)
(1.0109315829708 -0.011389651028547 0)
(1.0117601014409 -0.011821855574775 0)
(1.0000007051072 -0.00026443836098597 0)
(1.0000301101159 -0.00078715062413278 0)
(1.0000863376398 -0.0013093133702599 0)
(1.0001704360959 -0.0018319803933983 0)
(1.0002828866954 -0.0023549230338762 0)
(1.0004237577602 -0.0028775380808984 0)
(1.0005928499675 -0.0033990864970068 0)
(1.0007899947382 -0.0039189263302208 0)
(1.0010149640329 -0.0044365576205922 0)
(1.0012677478312 -0.0049521781996037 0)
(1.0015481899761 -0.0054660996136194 0)
(1.0018565675838 -0.0059790427603906 0)
(1.0021927179473 -0.0064906339806137 0)
(1.0025572518032 -0.0070009458745924 0)
(1.0029496175751 -0.0075081356904089 0)
(1.003370894025 -0.0080125441675374 0)
(1.0038195917795 -0.0085110884752807 0)
(1.0042979189927 -0.0090061345957589 0)
(1.00480247336 -0.0094921139123728 0)
(1.0053381107451 -0.0099756856901034 0)
(1.0058973364557 -0.010445043990234 0)
(1.0064908940931 -0.010916321455531 0)
(1.0071024095145 -0.011363327448808 0)
(1.007755551768 -0.011823944461545 0)
(1.0084146821076 -0.012239183324352 0)
(1.009131829488 -0.012696613151617 0)
(1.0098293755397 -0.01306233662607 0)
(1.0106219950008 -0.013536946481031 0)
(1.0113404222282 -0.013815834326506 0)
(1.0122391128702 -0.014356443076963 0)
(1.0000007572086 -0.00030817812065814 0)
(1.0000309260432 -0.00091622612898359 0)
(1.0000885065985 -0.0015234300627297 0)
(1.0001745490734 -0.0021312270877586 0)
(1.0002895325144 -0.0027394306319491 0)
(1.00043354088 -0.0033473584865937 0)
(1.0006063787501 -0.0039541087270814 0)
(1.0008078982679 -0.0045588825616527 0)
(1.0010378555979 -0.0051611050801429 0)
(1.0012962829183 -0.0057611472365712 0)
(1.0015830223161 -0.0063595838676159 0)
(1.0018984949451 -0.0069575082422289 0)
(1.0022425548817 -0.0075546344333114 0)
(1.0026160907312 -0.0081511834501708 0)
(1.0030184779648 -0.0087449790264294 0)
(1.0034512593814 -0.0093365156084467 0)
(1.0039126087995 -0.0099220634131829 0)
(1.0044055923697 -0.010504601934705 0)
(1.0049258876586 -0.011077342468742 0)
(1.0054800857525 -0.011648539099233 0)
(1.0060584832607 -0.012203722834837 0)
(1.0066754781364 -0.01276277248257 0)
(1.0073096519636 -0.01329352911154 0)
(1.0079925206742 -0.013842571629548 0)
(1.0086771980159 -0.014337461081071 0)
(1.0094327623209 -0.014885760915689 0)
(1.0101567405213 -0.015323092972007 0)
(1.0110012850466 -0.015895678632038 0)
(1.0117423606009 -0.016229700027543 0)
(1.0127178255551 -0.016886379946256 0)
(1.0000008096587 -0.0003504566912036 0)
(1.0000315390426 -0.0010405238306826 0)
(1.0000900682169 -0.0017293865619585 0)
(1.0001774465041 -0.0024189425854242 0)
(1.000294154346 -0.0031090801243732 0)
(1.0004402993411 -0.0037990496680493 0)
(1.0006156963681 -0.0044877761885286 0)
(1.0008202244887 -0.0051742901874843 0)
(1.0010536273016 -0.0058579515846337 0)
(1.0013159882473 -0.0065393621199943 0)
(1.0016071570255 -0.0072194464686626 0)
(1.001927722204 -0.0078997685829194 0)
(1.0022775727678 -0.0085801969067592 0)
(1.0026579138871 -0.0092611550810364 0)
(1.0030680649056 -0.0099401407112481 0)
(1.0035100875841 -0.010617836152884 0)
(1.0039818210671 -0.01128984246434 0)
(1.0044872742253 -0.011959816859807 0)
(1.0050211706523 -0.012619691002934 0)
(1.0055919841226 -0.013279442435995 0)
(1.0061876855573 -0.013921779458408 0)
(1.0068266068645 -0.01457059204771 0)
(1.0074819826027 -0.015187367860046 0)
(1.0081937340181 -0.015827969293096 0)
(1.0089030197159 -0.016405623252347 0)
(1.0096971374043 -0.017049218505911 0)
(1.0104471493509 -0.017561876345226 0)
(1.0113452426961 -0.018238473927755 0)
(1.0121089913227 -0.01863136545171 0)
(1.0131654668152 -0.019412468095066 0)
(1.000000859995 -0.00039100613261512 0)
(1.0000318658153 -0.0011592416121851 0)
(1.0000907821231 -0.0019258497225717 0)
(1.000178658433 -0.0026932660162051 0)
(1.0002959821718 -0.0034614882727979 0)
(1.0004428900068 -0.0042297136711266 0)
(1.0006192121061 -0.0049966856590796 0)
(1.0008248599585 -0.0057612514928791 0)
(1.0010595691143 -0.0065227184630622 0)
(1.0013234827839 -0.0072819801586723 0)
(1.0016164696199 -0.0080404031423411 0)
(1.0019393069822 -0.0088001242415336 0)
(1.0022919407262 -0.0095612390947209 0)
(1.0026759265519 -0.010324429947502 0)
(1.003090552883 -0.011086883325595 0)
(1.0035384453018 -0.011849502384949 0)
(1.0040171291754 -0.012607209461445 0)
(1.0045316187496 -0.013364396212655 0)
(1.00507568991 -0.014111678219607 0)
(1.0056597966831 -0.014860862974872 0)
(1.0062695526046 -0.015591721244241 0)
(1.0069273900791 -0.016332364563359 0)
(1.0076010755755 -0.017037633548329 0)
(1.0083392469769 -0.017773136899202 0)
(1.0090707827618 -0.018437074490193 0)
(1.0099018264916 -0.019180719378077 0)
(1.0106761879557 -0.019773074394752 0)
(1.0116274676143 -0.020560120847736 0)
(1.0124129777382 -0.02101660310641 0)
(1.0135523021183 -0.021930838624691 0)
(1.0000009065824 -0.00042951830635965 0)
(1.0000318348527 -0.0012714683055669 0)
(1.0000904494816 -0.0021113082412109 0)
(1.0001777963057 -0.0029520875759818 0)
(1.0002943697031 -0.0037939502533095 0)
(1.0004403396026 -0.0046360558086858 0)
(1.0006155577274 -0.005476959180667 0)
(1.0008199742462 -0.0063153130451989 0)
(1.0010533225512 -0.0071503874389277 0)
(1.001315812844 -0.0079834310706165 0)
(1.0016073449423 -0.008816348303265 0)
(1.001928902727 -0.0096519522222216 0)
(1.0022805133443 -0.010490643892038 0)
(1.0026641105209 -0.011333420250483 0)
(1.0030789844704 -0.012177181487076 0)
(1.0035283573138 -0.01302308142573 0)
(1.0040094797113 -0.013865371449931 0)
(1.0045284089931 -0.014709222325462 0)
(1.0050780203917 -0.015543929568621 0)
(1.0056707919272 -0.016383204053267 0)
(1.0062900355868 -0.017203828658314 0)
(1.0069623337376 -0.018038267285096 0)
(1.0076500497673 -0.018834552740009 0)
(1.0084105900627 -0.019668322468 0)
(1.0091606276149 -0.020422334704375 0)
(1.0100252187793 -0.0212709112871 0)
(1.0108209719209 -0.021947903821481 0)
(1.0118230824415 -0.022852002603419 0)
(1.0126285122353 -0.023377784714268 0)
(1.0138501141109 -0.02443390379634 0)
(1.0000009468352 -0.00046566902362471 0)
(1.0000313892898 -0.0013762528639641 0)
(1.0000889118124 -0.0022841905779587 0)
(1.0001745452994 -0.0031932187471693 0)
(1.0002887902137 -0.0041036636098923 0)
(1.0004318538212 -0.0050146624084047 0)
(1.0006036161491 -0.0059245752391676 0)
(1.0008040707262 -0.0068318497097275 0)
(1.0010329539945 -0.0077357360673528 0)
(1.0012905480413 -0.0086379014862614 0)
(1.0015767966869 -0.0095408859113602 0)
(1.0018929035232 -0.010448280686102 0)
(1.0022390025808 -0.011360875149669 0)
(1.0026174245184 -0.012280035373481 0)
(1.0030274998147 -0.01320241133572 0)
(1.0034730655638 -0.014129432608866 0)
(1.0039511536824 -0.015054709056331 0)
(1.0044688751063 -0.015984218869603 0)
(1.0050182909346 -0.0169059746462 0)
(1.005613890706 -0.017835620844475 0)
(1.0062368280014 -0.018746984813635 0)
(1.0069177634932 -0.019676911104303 0)
(1.0076139100827 -0.020566635143942 0)
(1.0083912371221 -0.021501873849861 0)
(1.0091546793713 -0.022349888391741 0)
(1.0100477181028 -0.023308206002247 0)
(1.0108606469178 -0.024075249954421 0)
(1.0119092533213 -0.025102938565878 0)
(1.0127318152277 -0.02570470652302 0)
(1.0140327275494 -0.026911195703836 0)
(1.000000979779 -0.00049914287102781 0)
(1.0000304863152 -0.0014726818354727 0)
(1.0000860480381 -0.0024429931404366 0)
(1.000168668428 -0.0034145678652095 0)
(1.0002788505129 -0.0043879484334264 0)
(1.0004168418681 -0.0053622640151128 0)
(1.0005825568924 -0.0063356743578531 0)
(1.000776035254 -0.0073064123299663 0)
(1.0009970206325 -0.0082737272163841 0)
(1.0012458678761 -0.0092397658127367 0)
(1.0015225757524 -0.010207800576331 0)
(1.0018285746861 -0.011182298484395 0)
(1.002164131318 -0.012164523551833 0)
(1.0025319823742 -0.013156262218619 0)
(1.0029315408291 -0.014153962960033 0)
(1.0033672610881 -0.015159349540233 0)
(1.0038360265842 -0.016165444820478 0)
(1.0043459838527 -0.017179042478917 0)
(1.0048885028682 -0.018186957926162 0)
(1.005480015502 -0.019206747238599 0)
(1.006099742287 -0.020209413328955 0)
(1.0067822334508 -0.02123608699406 0)
(1.007479981834 -0.022221422300725 0)
(1.0082670626121 -0.023260989148845 0)
(1.0090375212549 -0.024206928270577 0)
(1.009952244574 -0.025279520673944 0)
(1.0107768894102 -0.02614239438451 0)
(1.0118657129374 -0.02729990957084 0)
(1.0127016411345 -0.02798529363129 0)
(1.0140765370598 -0.029350075662167 0)
(1.0000010033438 -0.00052965613704022 0)
(1.0000290992019 -0.0015599441206346 0)
(1.0000817855428 -0.0025863850599288 0)
(1.0001600226626 -0.0036142833707896 0)
(1.000264312737 -0.004644428361416 0)
(1.0003949445437 -0.0056759538458591 0)
(1.0005518711824 -0.0067068142396493 0)
(1.0007351785872 -0.0077350185637619 0)
(1.0009446201801 -0.0087598348306286 0)
(1.0011806205678 -0.0097839466644365 0)
(1.0014432422805 -0.010811452781963 0)
(1.0017341416112 -0.011847785307303 0)
(1.0020537405989 -0.012894770868947 0)
(1.0024051800182 -0.013954662074214 0)
(1.0027879994728 -0.015023767985027 0)
(1.0032072559014 -0.016104116667553 0)
(1.0036597653885 -0.017188226053179 0)
(1.0041546629724 -0.018283689576642 0)
(1.0046827817519 -0.019376265579086 0)
(1.0052623718362 -0.020485340167509 0)
(1.005871020108 -0.02157933481524 0)
(1.0065468654786 -0.022703432760626 0)
(1.007238274567 -0.023786157284723 0)
(1.0080267413316 -0.024932389542014 0)
(1.008796613445 -0.025980021504717 0)
(1.0097246790395 -0.027170941481195 0)
(1.010554362385 -0.028135661236617 0)
(1.0116752461998 -0.029428700524299 0)
(1.0125197483853 -0.030206214978301 0)
(1.0139610141579 -0.031736349308674 0)
(1.0000010171477 -0.00055697253126213 0)
(1.0000272178522 -0.001637376696235 0)
(1.0000760983937 -0.0027132831695872 0)
(1.000148560133 -0.0037908587485232 0)
(1.0002450976478 -0.0048711662184663 0)
(1.0003660398137 -0.0059533542982279 0)
(1.0005113809569 -0.0070351673408018 0)
(1.0006812500442 -0.0081143814745367 0)
(1.0008754103948 -0.0091903029328509 0)
(1.0010943487599 -0.010266203474359 0)
(1.0013381971175 -0.011347096536829 0)
(1.0016088288415 -0.012439458716893 0)
(1.0019068400361 -0.013545766914279 0)
(1.0022357602117 -0.014668778028545 0)
(1.0025952981367 -0.015804736392233 0)
(1.002991081255 -0.016955974618722 0)
(1.0034199464646 -0.018114616628981 0)
(1.0038919418453 -0.019289013384993 0)
(1.0043975422463 -0.020464064224892 0)
(1.004956640619 -0.021660838507547 0)
(1.0055455511247 -0.02284554049698 0)
(1.0062056008712 -0.024067020235629 0)
(1.0068817625524 -0.025248377231167 0)
(1.0076620561982 -0.026502917473236 0)
(1.0084226248353 -0.027655701093794 0)
(1.0093542314319 -0.028968313689465 0)
(1.0101810928492 -0.030040988424627 0)
(1.0113240983406 -0.031474466284237 0)
(1.0121713069559 -0.032353417937421 0)
(1.013669142262 -0.034054799819173 0)
(1.0000010197443 -0.00058091450570599 0)
(1.000024849416 -0.0017044959427761 0)
(1.0000690110867 -0.0028229041352075 0)
(1.0001343284517 -0.003943205654456 0)
(1.0002212824271 -0.0050667581862977 0)
(1.0003302384911 -0.0061927327623814 0)
(1.0004612320193 -0.0073186586716773 0)
(1.000614428607 -0.0084420698137664 0)
(1.0007895987415 -0.0095623290087782 0)
(1.0009872787966 -0.010683339756826 0)
(1.0012076718398 -0.011811111018122 0)
(1.00145285112 -0.012953230626203 0)
(1.0017236001582 -0.014112911554292 0)
(1.00202380936 -0.015293444040758 0)
(1.0023533945528 -0.016491093704974 0)
(1.0027185033053 -0.017708486098069 0)
(1.0031160840373 -0.018937490347538 0)
(1.0035569959636 -0.020187144490678 0)
(1.0040315506691 -0.021441745903714 0)
(1.0045610626535 -0.022723831892329 0)
(1.0051209812936 -0.023997879728665 0)
(1.0057553347063 -0.02531586128822 0)
(1.0064065451209 -0.026596429648154 0)
(1.0071680968394 -0.027960064843044 0)
(1.0079096578566 -0.029220992339906 0)
(1.0088336951689 -0.030657770826381 0)
(1.0096487504634 -0.031844438089462 0)
(1.0108022876509 -0.033422238827676 0)
(1.0116452108139 -0.034412600619275 0)
(1.0131877654058 -0.036289657120898 0)
(1.0000010115657 -0.00060136962511364 0)
(1.0000220157894 -0.0017610157889696 0)
(1.0000605891594 -0.0029147932351491 0)
(1.0001174600402 -0.0040706938223972 0)
(1.0001930861595 -0.0052303859487703 0)
(1.0002878641668 -0.0063930667933411 0)
(1.0004018682199 -0.0075560451157673 0)
(1.0005352904233 -0.008716602543679 0)
(1.0006879027689 -0.0098741746206986 0)
(1.0008602740438 -0.011033331141696 0)
(1.0010526754164 -0.012201147392165 0)
(1.0012673544653 -0.013386374851575 0)
(1.0015052887423 -0.01459304402688 0)
(1.0017706894447 -0.015824997701168 0)
(1.0020637112714 -0.017078618337389 0)
(1.0023909545335 -0.018356800647159 0)
(1.0027495666382 -0.019651323244201 0)
(1.0031510918381 -0.020971812225037 0)
(1.0035858814141 -0.022302276163339 0)
(1.0040764108068 -0.023666436656738 0)
(1.004597702739 -0.025027658402229 0)
(1.0051959298886 -0.026440330004879 0)
(1.0058118855492 -0.027819909093654 0)
(1.0065433233507 -0.02929242794964 0)
(1.0072553434444 -0.030663872016185 0)
(1.0081595840113 -0.03222620544636 0)
(1.0089528081005 -0.033532655500729 0)
(1.0101037994031 -0.035257384661935 0)
(1.0109342929975 -0.036369638287512 0)
(1.0125078221043 -0.038425026119606 0)
(1.0000009918017 -0.00061829300624725 0)
(1.0000187529997 -0.0018068520333778 0)
(1.0000509393156 -0.0029888314845486 0)
(1.0000981634747 -0.0041731614579212 0)
(1.0001608520964 -0.0053618305538315 0)
(1.0002394257412 -0.0065540625045715 0)
(1.0003339922555 -0.0077469389932507 0)
(1.0004447576612 -0.0089374787633715 0)
(1.0005714865095 -0.010125203242332 0)
(1.0007147585498 -0.011315373500983 0)
(1.0008749050232 -0.012516189702423 0)
(1.0010543145679 -0.013737604090154 0)
(1.0012541572987 -0.014984538355606 0)
(1.0014789138245 -0.016261397243534 0)
(1.0017290009449 -0.01756478066511 0)
(1.0020113901394 -0.018897819127973 0)
(1.002323508364 -0.020252383747898 0)
(1.0026774375617 -0.02163856541861 0)
(1.0030637704349 -0.023040442889327 0)
(1.0035058510507 -0.024482577933257 0)
(1.0039787274511 -0.025927947821319 0)
(1.0045301057857 -0.027432503446669 0)
(1.0051001187388 -0.02891001706348 0)
(1.005789500664 -0.030490092877091 0)
(1.0064608019582 -0.031973662623662 0)
(1.0073321185115 -0.033661682516705 0)
(1.0080925758587 -0.035093280169208 0)
(1.009226650487 -0.03696602095826 0)
(1.0100354140518 -0.038210951315089 0)
(1.0116244776082 -0.040445275660433 0)
(1.0000009617482 -0.00063170572970923 0)
(1.0000151076143 -0.0018421173144691 0)
(1.000040196206 -0.003045225545829 0)
(1.0000767070803 -0.0042508997553478 0)
(1.0001250240931 -0.0054614529907511 0)
(1.0001855828119 -0.0066761327413168 0)
(1.0002585182101 -0.0078917859479379 0)
(1.0003440351938 -0.0091051566203026 0)
(1.0004418793525 -0.01031586032563 0)
(1.0005526170876 -0.011529864689722 0)
(1.0006766264415 -0.012756539093104 0)
(1.0008163979276 -0.014007060221066 0)
(1.0009732833092 -0.015287303141756 0)
(1.0011519722559 -0.016602237323499 0)
(1.0013531549208 -0.017948777072877 0)
(1.0015840817563 -0.019330252379697 0)
(1.0018425274417 -0.020738813621826 0)
(1.0021409503275 -0.022184884692794 0)
(1.0024703752432 -0.023652993737192 0)
(1.002854699918 -0.025168166313699 0)
(1.0032694483798 -0.026693787992434 0)
(1.0037632098521 -0.028286412122481 0)
(1.0042764429877 -0.029859836048473 0)
(1.0049115007024 -0.031544953439214 0)
(1.0055304767735 -0.033141360073356 0)
(1.0063550770768 -0.034953795803703 0)
(1.0070711070123 -0.036515337382779 0)
(1.0081728368684 -0.038535366033943 0)
(1.0089494521125 -0.039924036013192 0)
(1.0105370474233 -0.042335050307761 0)
(1.0000009215198 -0.00064168893865866 0)
(1.000011135449 -0.0018671052603668 0)
(1.0000285215139 -0.0030844841879455 0)
(1.0000534059161 -0.004304623372361 0)
(1.0000861204466 -0.0055301566861657 0)
(1.0001271063244 -0.0067603495878273 0)
(1.0001765165594 -0.0079918074085883 0)
(1.0002345395365 -0.0092209890884147 0)
(1.0003008872133 -0.010447606864849 0)
(1.0003760864127 -0.011678339036069 0)
(1.0004605423854 -0.012923749738312 0)
(1.0005568048222 -0.01419625192694 0)
(1.0006663855549 -0.015502720283592 0)
(1.0007941198831 -0.016848693029748 0)
(1.000940966375 -0.018231480264713 0)
(1.0011143596859 -0.019654588282557 0)
(1.001312467083 -0.02111060796559 0)
(1.0015479605783 -0.022610191945634 0)
(1.0018124600211 -0.024138658611626 0)
(1.0021300972916 -0.025721164868676 0)
(1.0024773003173 -0.027322263106599 0)
(1.002902872343 -0.028998183121585 0)
(1.0033485876038 -0.030664481277802 0)
(1.0039169814268 -0.032450954356305 0)
(1.0044718603195 -0.034159882739408 0)
(1.0052354590946 -0.036093940868655 0)
(1.0058950186724 -0.037789571823737 0)
(1.0069479187922 -0.039954079413067 0)
(1.0076816685605 -0.041497770647715 0)
(1.0092485485952 -0.044080596185662 0)
(1.0000008720857 -0.00064837666965936 0)
(1.0000068933796 -0.0018822503871298 0)
(1.0000160858979 -0.0031073549081769 0)
(1.0000285990167 -0.0043353930081192 0)
(1.0000447025848 -0.0055693039617791 0)
(1.0000648330012 -0.0068083610293184 0)
(1.0000891521599 -0.008048919632096 0)
(1.0001178167598 -0.0092871422832835 0)
(1.0001504906041 -0.010522836251921 0)
(1.0001876346106 -0.011763384072199 0)
(1.0002296541692 -0.013020549037497 0)
(1.0002791111988 -0.014307979665434 0)
(1.0003376427249 -0.015633576573446 0)
(1.0004101684477 -0.017003458228387 0)
(1.0004978905788 -0.018415384467417 0)
(1.0006083437676 -0.019873048148864 0)
(1.000740095033 -0.021369577700775 0)
(1.0009058900769 -0.022915836214685 0)
(1.0010980437183 -0.024498131687708 0)
(1.0013406402445 -0.026141617070953 0)
(1.0016113596177 -0.027812494647099 0)
(1.0019585877301 -0.029566126094921 0)
(1.0023263731757 -0.031321101043831 0)
(1.0028159139281 -0.03320431298125 0)
(1.0032951760939 -0.035024117547516 0)
(1.0039829090885 -0.037075821948453 0)
(1.0045746278979 -0.038908381113339 0)
(1.005559134242 -0.041212324336454 0)
(1.0062437367505 -0.042923790191192 0)
(1.0077598011856 -0.045665948902831 0)
(1.0000008128551 -0.00065193342736101 0)
(1.0000024287192 -0.0018881054130184 0)
(1.0000030318285 -0.0031147899567821 0)
(1.0000025969238 -0.0043445548129329 0)
(1.0000013152686 -0.0055806218131545 0)
(0.99999959520163 -0.0068222631542108 0)
(0.99999759716788 -0.0080655782291927 0)
(0.99999543387197 -0.0093064190918443 0)
(0.99999271279022 -0.010544689803364 0)
(0.9999898059955 -0.01178846119397 0)
(0.99998708971842 -0.013050680689502 0)
(0.99998707719347 -0.014346207867461 0)
(0.99999148580874 -0.015683975343227 0)
(1.0000052525619 -0.01707069086236 0)
(1.0000297903832 -0.018504595614579 0)
(1.0000726558265 -0.019989609568928 0)
(1.0001327924645 -0.021519418392921 0)
(1.0002229095961 -0.023105193001183 0)
(1.0003360315817 -0.024734198510044 0)
(1.0004960018202 -0.026431809903747 0)
(1.0006819162219 -0.02816575316461 0)
(1.0009413017153 -0.029990922219945 0)
(1.0012211532565 -0.031828796706899 0)
(1.0016201240904 -0.0338037087906 0)
(1.0020125021895 -0.035730531784799 0)
(1.0026099310112 -0.03789594385451 0)
(1.0031220755523 -0.039865214556765 0)
(1.0040195414423 -0.042303387536723 0)
(1.0046437990326 -0.044190423842091 0)
(1.006088135146 -0.04708107189941 0)
(1.0000007425921 -0.00065257099705094 0)
(0.99999778026591 -0.0018853070953143 0)
(0.99998949593326 -0.0031078246859707 0)
(0.99997569524046 -0.0043335382716516 0)
(0.99995647541962 -0.0055659370409188 0)
(0.99993218620132 -0.0068042937266324 0)
(0.99990298703966 -0.008044441361263 0)
(0.99986892058472 -0.0092818893673947 0)
(0.99982952964861 -0.010516627993176 0)
(0.99978507864727 -0.011757382249541 0)
(0.99973590947554 -0.013018279297659 0)
(0.99968440183987 -0.014315355826847 0)
(0.99963232351144 -0.015658587699221 0)
(0.99958451014648 -0.017055241334364 0)
(0.99954260122348 -0.018504079981105 0)
(0.99951402593688 -0.020009246238521 0)
(0.9994981674832 -0.021565004556868 0)
(0.99950747906447 -0.023182924413226 0)
(0.99953580461338 -0.02485108418023 0)
(0.99960645084179 -0.026595546420081 0)
(0.99970009087093 -0.028384820105113 0)
(0.99986303290251 -0.030274879738868 0)
(1.0000454540358 -0.032187721263894 0)
(1.0003430470525 -0.034249341500427 0)
(1.0006370177945 -0.036275133558705 0)
(1.0011313484683 -0.038552662041538 0)
(1.001551341108 -0.040651093272574 0)
(1.0023466862309 -0.043224600826564 0)
(1.0028963237753 -0.045281345782952 0)
(1.0042501347994 -0.048311560562963 0)
(1.0000006565011 -0.00065059137286986 0)
(0.99999306949268 -0.0018747761674829 0)
(0.99997575579084 -0.0030878759061014 0)
(0.99994834273142 -0.0043041288305834 0)
(0.99991081700596 -0.0055273384835258 0)
(0.99986345943153 -0.0067568260706416 0)
(0.99980647111612 -0.0079881330896389 0)
(0.99973980818698 -0.0092164946172448 0)
(0.99966293814863 -0.010441966589692 0)
(0.99957595368187 -0.0116737623728 0)
(0.99947915286484 -0.012927132256997 0)
(0.99937467084478 -0.01421925324356 0)
(0.99926438002924 -0.015561246839831 0)
(0.99915281366909 -0.016960889387747 0)
(0.99904200380697 -0.018417609286079 0)
(0.99893887479422 -0.019935613668247 0)
(0.99884365514826 -0.021509961785539 0)
(0.99876780977299 -0.023152379015285 0)
(0.99870684218729 -0.024852017186235 0)
(0.99868219093049 -0.026635566940089 0)
(0.99867768725752 -0.028472123041431 0)
(0.99873617248414 -0.030419941298055 0)
(0.99881359946462 -0.032398707998756 0)
(0.99899918754973 -0.0345424533025 0)
(0.99918494783583 -0.036654938251732 0)
(0.99956258355663 -0.039047997228915 0)
(0.99987980551501 -0.041255644676102 0)
(1.0005590744343 -0.043988805981867 0)
(1.0010296080852 -0.046178129543602 0)
(1.002267194509 -0.049386835732242 0)
(1.0000005363931 -0.00064648514204412 0)
(0.99998849664049 -0.0018581056289064 0)
(0.99996235289332 -0.0030574505830774 0)
(0.99992136540725 -0.0042595661082477 0)
(0.9998653653484 -0.0054685958320946 0)
(0.99979466151411 -0.0066841289088491 0)
(0.99970949120981 -0.0079009926182121 0)
(0.99960968545856 -0.0091144780357738 0)
(0.99949485007653 -0.010324946126016 0)
(0.99936489694397 -0.01154196665544 0)
(0.99921993162479 -0.012781734743702 0)
(0.9990616019322 -0.014062398842015 0)
(0.99889194600688 -0.015396314980376 0)
(0.99871498873802 -0.016791757856037 0)
(0.99853348410565 -0.018249129588724 0)
(0.99835331200919 -0.019772518346815 0)
(0.99817633156192 -0.021358383953197 0)
(0.99801165482502 -0.023017951727443 0)
(0.99785835389347 -0.024742701751037 0)
(0.99773282054397 -0.026558486744176 0)
(0.99762664317274 -0.028437354144355 0)
(0.99757213035123 -0.030437557869991 0)
(0.99754128946465 -0.032478977510635 0)
(0.99760160337389 -0.034703868676381 0)
(0.99767713567781 -0.036898037539332 0)
(0.99791604788595 -0.039420483004443 0)
(0.99813044468038 -0.041712889590013 0)
(0.99866016379287 -0.044679032610078 0)
(0.99907747147334 -0.046903714788299 0)
(1.0001639708088 -0.050563892214977 0)
(1.0000003078233 -0.00064144367798444 0)
(0.99998371637492 -0.0018389541765074 0)
(0.99994909815336 -0.003023450043878 0)
(0.99989479021295 -0.0042107881052038 0)
(0.99982025607168 -0.0054049299569717 0)
(0.99972637836481 -0.0066060158570617 0)
(0.99961334578416 -0.0078077827382831 0)
(0.9994801488994 -0.0090051705889708 0)
(0.99932689593468 -0.010198705553209 0)
(0.99915369561652 -0.011398736083034 0)
(0.99896045220197 -0.012622924582667 0)
(0.99874812341879 -0.013890679574848 0)
(0.99851870947017 -0.015215799643629 0)
(0.9982755764234 -0.01660697677699 0)
(0.99802222802747 -0.01806572383875 0)
(0.99776328376125 -0.019595725141933 0)
(0.99750257070338 -0.021195689007184 0)