/*--------------------------------*- C++ -*----------------------------------*\
| =========                 |                                                 |
| \\      /  F ield         | OpenFOAM: The Open Source CFD Toolbox           |
|  \\    /   O peration     | Version:  2112                                  |
|   \\  /    A nd           | Website:  www.openfoam.com                      |
|    \\/     M anipulation  |                                                 |
\*---------------------------------------------------------------------------*/
FoamFile
{
    version     2.0;
    format      ascii;
    arch        "LSB;label=32;scalar=64";
    class       surfaceScalarField;
    location    "18.7";
    object      phi;
}
// * * * * * * * * * * * * * * * * * * * * * * * * * * * * * * * * * * * * * //

dimensions      [0 3 -1 0 0 0 0];

oriented        oriented;

internalField   nonuniform List<scalar> 
43645
(
0.39512384941682
-4.9763196963764e-06
0.39513876623485
-1.4916778325284e-05
0.39516364136889
-2.4875091082248e-05
0.39519846871691
-3.4827303624325e-05
0.39524320959507
-4.4740833566661e-05
0.395297810504
-5.4600864757259e-05
0.39536221028835
-6.4399741008353e-05
0.39543634570633
-7.4135375584879e-05
0.3955201519032
-8.3806155537478e-05
0.39561356557666
-9.3413633172061e-05
0.39571651822489
-0.0001029526090563
0.39582893966466
-0.00011242140162604
0.3959507441645
-0.00012180446279996
0.39608184494914
-0.00013110074859303
0.39622213044268
-0.00014028545853927
0.39637150356507
-0.00014937308827852
0.39652982739805
-0.00015832379982139
0.39669701069159
-0.00016718326114092
0.39687287625207
-0.00017586552888702
0.39705735360057
-0.00018447731751857
0.39725017805098
-0.00019282442008514
0.39745133845061
-0.00020116036973261
0.3976603945156
-0.00020905603558881
0.39787750845249
-0.00021711390775136
0.39810188522121
-0.00022437673993238
0.39833413301904
-0.00023224776914689
0.39857269643471
-0.00023856338720808
0.39881924594876
-0.00024654948595102
0.39907053750045
-0.00025129152425305
-0.00026011297342418
0.39933065050173
0.37294720762488
-9.6291441229492e-06
0.37296122816447
-2.8937253519477e-05
0.37298479066353
-4.8437524568705e-05
0.37301787421265
-6.7910787214488e-05
0.37306043172083
-8.7298277074121e-05
0.37311241201968
-0.00010658110006013
0.37317376163673
-0.00012574929588774
0.37324442581124
-0.00014479948927852
0.37332434761031
-0.00016372789527558
0.37341347133719
-0.0001825373021035
0.37351173638134
-0.00020121759677453
0.3736190805677
-0.00021976553293567
0.3737354262992
-0.00023815014073119
0.37386069446561
-0.00025636886274671
0.37399478161464
-0.00027437255669912
0.3741375987579
-0.00029219018182732
0.37428901926342
-0.00030974425687815
0.3744489622291
-0.00032712617932453
0.37461726472032
-0.00034416797364976
0.37479386828574
-0.00036108083722312
0.37497852674583
-0.00037748283528596
0.37517123972339
-0.00039387330292255
0.37537159133192
-0.00040940760036065
0.3755797489087
-0.0004252714410724
0.37579495461095
-0.00043958239914738
0.37601780833471
-0.00045510144999505
0.37624682324142
-0.00046757825126833
0.37648363150245
-0.0004833577048837
0.3767251324839
-0.00049279246515337
-0.00051030609410057
0.37697532564621
0.35201548336315
-1.4214918735437e-05
0.35202924363092
-4.2697453820092e-05
0.35205223534013
-7.1429166092406e-05
0.35208443027117
-0.00010010565130219
0.35212577740141
-0.00012864534170388
0.3521762261285
-0.00015702976300517
0.3522357269537
-0.00018525005862685
0.35230423100194
-0.00021330347663008
0.35238168833014
-0.00024118516432891
0.35246805143842
-0.00026890035283169
0.35256326870737
-0.00029643480992246
0.35266728758517
-0.00032378435649583
0.35278003944872
-0.00035090195174362
0.35290145409857
-0.00037778346150665
0.3530314359533
-0.00040435436190072
0.35316990578605
-0.00043065996629817
0.35331674650395
-0.0004565849278519
0.35347189174423
-0.00048227137367286
0.35363519112195
-0.00050746730652061
0.35380660688196
-0.00053249655309661
0.35398590502562
-0.00055678093562396
0.35417311236136
-0.00058108059575098
0.35436781811942
-0.00060411331606724
0.35457022747044
-0.00062768074988514
0.35477956891791
-0.00064892380471973
0.35499650282601
-0.00067203531610812
0.35521948349992
-0.00069055888331272
0.35545025257852
-0.00071412674192032
0.35568554346122
-0.00072808330777184
-0.00075431637059767
0.3559295537793
0.33225855665738
-1.8727559783596e-05
0.33227208741622
-5.6228152656526e-05
0.33229465308081
-9.3994770367812e-05
0.33232619264017
-0.00013164515092537
0.33236663839707
-0.00016909104002194
0.33241593854005
-0.00020632984864504
0.33247404931317
-0.00024336077589198
0.33254092929763
-0.0002801834066212
0.33261653647545
-0.00031679228924457
0.33270083262248
-0.00035319644837512
0.33279377657769
-0.00038937871525401
0.3328953273439
-0.00042533507421069
0.33300542702979
-0.00046100159071119
0.3331240162134
-0.0004963725994769
0.33325100854638
-0.00053134665066316
0.3333863367613
-0.00056598813811435
0.33352989504376
-0.00060014316844401
0.33368163537073
-0.0006340116596366
0.33384142212613
-0.00066725402190028
0.33400924403756
-0.00070031842511158
0.33418488030359
-0.00073241716298219
0.33436839301806
-0.00076459327187743
0.33455937339246
-0.00079509365263467
0.33475807747673
-0.00082638479641334
0.33496370867349
-0.00085455496404448
0.33517701469466
-0.00088534129973159
0.33539636546784
-0.00090990961906661
0.33562367809134
-0.00094143932829559
0.33585547261712
-0.00095987779778871
-0.00099517561269832
0.33609633189647
0.31361051077536
-2.3180904297499e-05
0.31362385329967
-6.9570622951631e-05
0.31364606706767
-0.00011620848428304
0.31367705931903
-0.00016263734888017
0.31371674365974
-0.0002087753285185
0.3137650662027
-0.00025465234066361
0.31382198989578
-0.00030028441952293
0.31388748271274
-0.00034567617551326
0.31396151280068
-0.00039082233069029
0.31404405368756
-0.000435737290186
0.31413507735873
-0.0004804023429406
0.31423455728078
-0.00052481495414406
0.31434244907303
-0.00056889334236792
0.3144587068565
-0.00061263034358313
0.31458325602008
-0.00065589577625673
0.31471604431142
-0.00069877639247659
0.31485698029065
-0.0007410791118489
0.31500603880191
-0.00078307013581233
0.31516310305074
-0.00082431823653503
0.31532819448437
-0.000865409825001
0.31550110935313
-0.00090533199862048
0.31568195295693
-0.0009454368427173
0.31587032033346
-0.00098346099656617
0.3160665295281
-0.0010225939583625
0.31626975579373
-0.0010577811971132
0.31648085268504
-0.0010964381581575
0.31669809042772
-0.0011271473288063
0.31692359442275
-0.0011669432904305
0.31715362170812
-0.0011899050513002
-0.0012347545911504
0.31739320072016
0.29600909689706
-2.7575894259669e-05
0.29602225375835
-8.2727434308641e-05
0.2960441165023
-0.00013807117829334
0.29607455997274
-0.00019308077002419
0.2961134793295
-0.00024769463707189
0.29616081986906
-0.00030199283314435
0.29621655311046
-0.00035601761517895
0.29628065866686
-0.00040978168740419
0.29635311743382
-0.00046328105457174
0.29643391762801
-0.00051653744256647
0.29652304760848
-0.00056953228306223
0.29662049871575
-0.00062226602228381
0.29672624351139
-0.00067463810031075
0.29684025311282
-0.00072663990842536
0.29696246814925
-0.000778110777396
0.29709285523571
-0.00082916344456516
0.29723134153007
-0.00087956537294293
0.29737792969838
-0.00092965827154055
0.29753252698442
-0.00097891549086481
0.29769519358447
-0.0010280763937779
0.29786574834033
-0.0010758867238214
0.29804434640846
-0.0011240348803766
0.29823059130774
-0.0011697058657756
0.29842487037853
-0.0012168729990278
0.29862633273435
-0.0012592435230094
0.29883594674034
-0.0013060521339769
0.29905187825383
-0.0013430788121753
0.29927647557135
-0.0013915405779262
0.29950571369077
-0.0014191431417367
-0.0014741355734503
0.29974509470378
0.27939555825731
-3.1899589494844e-05
0.27940849082277
-9.5659955249922e-05
0.27942993729893
-0.00015951761003866
0.27945973981575
-0.00022288324306302
0.27949777569449
-0.00028573047308642
0.27954399111315
-0.00034820821011659
0.27959836840864
-0.00041039487024728
0.2796609013064
-0.00047231454588138
0.27973158615675
-0.00053396586698163
0.27981042885044
-0.00059538009948073
0.27989743743187
-0.00065654082909166
0.27999262462436
-0.00071745318049135
0.28009598364071
-0.00077799708369629
0.2802075063539
-0.00083816258966234
0.28032715270922
-0.00089775710196106
0.28045491243988
-0.00095692314529146
0.28059073626398
-0.0010153891681111
0.28073465980933
-0.00107358178855
0.28088662048864
-0.0011308761426159
0.28104672304479
-0.0011881789226987
0.28121481593846
-0.0012439795908082
0.28139110992622
-0.0013003288415364
0.2815752246375
-0.0013538205507707
0.28176762161291
-0.0014092699480125
0.2819674318045
-0.0014590536882844
0.282175741964
-0.0015143622668448
0.28239062199084
-0.0015579588123444
0.2826146457617
-0.0016155643221036
0.2828435142571
-0.0016480116112973
-0.0017138306936509
0.28308320940495
0.26371443836642
-3.6128467577068e-05
0.26372707569319
-0.00010829724148436
0.26374799001268
-0.00018043188911328
0.26377699126689
-0.00025188445738128
0.26381393984843
-0.00032267901563897
0.26385878444678
-0.00039305277034964
0.26391152032618
-0.00046313071260195
0.26397215767198
-0.0005329518555874
0.26404071087284
-0.00060251903291851
0.26411720629857
-0.00067187549126055
0.2642016748251
-0.00074100932288908
0.26429415389859
-0.00080993222220156
0.26439466108956
-0.00087850424408564
0.26450321281059
-0.00094671428098298
0.26461979269199
-0.0010143369547394
0.26474441798127
-0.0010815484066918
0.26487706842558
-0.0011480395854843
0.26501781776748
-0.0012143311040542
0.26516664047296
-0.001279698822457
0.26532369135011
-0.0013452297745532
0.26548885693931
-0.0014091451552844
0.26566240854843
-0.0014738804260606
0.26584399237466
-0.0015354043527899
0.26603414713782
-0.0015994246869094
0.26623199947361
-0.0016569060000455
0.26643875314659
-0.0017211159156016
0.26665240162599
-0.0017716072676323
0.26687573455369
-0.0018388972257956
0.26710420809189
-0.0018764851263754
-0.0019538826249174
0.26734426004796
0.24891339614566
-4.0231889313102e-05
0.24892564425477
-0.00012054531473617
0.24894587586416
-0.00020066346276201
0.24897386937222
-0.00027987793015786
0.24900946935947
-0.00035827896840304
0.24905262855467
-0.00043621193178911
0.24910335695798
-0.00051385908309848
0.24916168317401
-0.00059127803959647
0.24922764179221
-0.00066847762011904
0.24930128200066
-0.00074551566953022
0.24938266021307
-0.00082238750618929
0.24947184147972
-0.00089911346055035
0.24956887111521
-0.00097553385232661
0.24967379354686
-0.0010516366861244
0.2497866204086
-0.0011271637909405
0.24990740066199
-0.0012023286351568
0.25003614871651
-0.0012767876159108
0.25017298127718
-0.0013511636410911
0.25031791719323
-0.0014246347155642
0.25047116631409
-0.0014984788727279
0.25063266286349
-0.0015706416825168
0.25080274269639
-0.0016439602368816
0.25098109173441
-0.0017137533690797
0.25116832665863
-0.0017866595893296
0.25136358885068
-0.0018521681705128
0.25156819241269
-0.0019257194558276
0.2517800844709
-0.0019834993042061
0.25200224819283
-0.002061060926182
0.25222994563516
-0.002104182547952
-0.0021939558899742
0.25247001892259
0.23494303132082
-4.4175619568887e-05
0.23495478332784
-0.0001322972894323
0.23497416271534
-0.00022004281802638
0.23500091678103
-0.00030663196395516
0.23503487567154
-0.00039223782767056
0.23507599752777
-0.00047733375733548
0.23512430838085
-0.0005621699062684
0.23517985655733
-0.00064682618678105
0.23524269837142
-0.00073131940575928
0.23531290750018
-0.00081572477048338
0.23539056790923
-0.0009000478883343
0.23547577438972
-0.00098431991479225
0.23556860277715
-0.0010683622144101
0.23566912838137
-0.0011521622655989
0.23577739477564
-0.0012354301613311
0.2358934862981
-0.0013184201342468
0.23601745744444
-0.0014007587396492
0.23614947206973
-0.001483178244183
0.23628960078191
-0.0015647634061817
0.23643811256853
-0.0016469906380563
0.2365949996821
-0.001727528775315
0.23676066522635
-0.0018096257604755
0.23693485007142
-0.0018879381938973
0.23711824734501
-0.0019700568426646
0.23731003720032
-0.0020439580058846
0.23751163233663
-0.002127314572107
0.23772097372429
-0.0021928406720994
0.23794120432102
-0.0022812915033454
0.2381674635373
-0.0023304417455033
-0.0024334128754814
0.23840692054302
0.22175671812435
-4.7923926757577e-05
0.2217678661873
-0.00014344532361328
0.22178621970258
-0.00023839630458486
0.22181149671058
-0.00033190894350392
0.22184351460179
-0.00042425569094414
0.22188223792958
-0.00051605705762304
0.22192770949752
-0.00060764144732807
0.22197999806212
-0.00069911472496631
0.22203918254425
-0.00079050386216512
0.22210536195091
-0.00088190415192439
0.22217864890897
-0.00097333482191743
0.22225916913662
-0.0010648401184727
0.22234703086341
-0.0011562239179906
0.22244234221119
-0.0012474735906485
0.22254518188442
-0.0013382698125551
0.22265567235594
-0.0014289105841803
0.22277391299842
-0.0015189993612145
0.22290011794754
-0.0016093831727043
0.22303441652167
-0.0016990619602982
0.22317713967865
-0.0017897137752299
0.22332834826434
-0.0018787373416753
0.22348851378676
-0.0019697912636787
0.22365744902551
-0.0020568734138128
0.22383591955423
-0.0021485273525491
0.22402317256151
-0.0022312109946536
0.22422070271773
-0.0023248447097718
0.22442649467684
-0.0023986326129403
0.22464380646611
-0.0024986032745883
0.22486774664175
-0.0025543819039208
-0.0026713758968938
0.22510570968179
0.20931044993106
-5.1441883319045e-05
0.2093208923099
-0.00015388767644259
0.20933805372199
-0.00025555769066694
0.20936162602111
-0.00035548121678153
0.20939141588461
-0.00045404552900925
0.20942739498731
-0.00055203613517778
0.20946962294014
-0.00064986937549893
0.20951818878439
-0.00074768054489317
0.20957319401424
-0.0008455090682343
0.20963476289715
-0.00094347301141713
0.20970303685291
-0.001041608754865
0.20977817252547
-0.0011399757685925
0.20986031126271
-0.0012383626334257
0.2099495947593
-0.0013367570658007
0.21004613895969
-0.0014348139921318
0.21015010598935
-0.0015328775933551
0.2102616438632
-0.0016305372151669
0.2103810187153
-0.0017287580051878
0.21050842465052
-0.0018264678764237
0.21064425580932
-0.0019255449151457
0.21078865191904
-0.0020231334329683
0.21094215213069
-0.0021232914570369
0.21110465906373
-0.0022193803289525
0.21127700411002
-0.0023208723810024
0.211458533546
-0.0024127404131505
0.21165080242138
-0.0025171135676888
0.2118518977207
-0.0025997278951583
0.21206513714253
-0.002711842679617
0.21228570948622
-0.002774954231619
-0.0029067746879567
0.21252110829457
0.19756269280725
-5.4698138431567e-05
0.19757233787073
-0.00016353271633475
0.19758815743196
-0.00027137722826501
0.19760982054163
-0.00037714430290171
0.19763712528721
-0.00048135025134957
0.19767005077334
-0.00058496159826423
0.1977086727457
-0.00068849132519456
0.19775309944152
-0.00079210721826648
0.19780345377917
-0.00089586338387489
0.19785988400157
-0.00099990321205079
0.19792255929782
-0.0011042840298374
0.1979916661342
-0.0012090825839666
0.19806737851601
-0.0013140749947361
0.19814987106082
-0.0014192495903824
0.19823929776703
-0.0015242406786316
0.19833586045296
-0.0016294402598367
0.19843975816806
-0.0017344349113205
0.19855130904397
-0.001840308862374
0.1986707767288
-0.0019459355430176
0.19879861779224
-0.0020533859605212
0.19893506027105
-0.0021595758941511
0.19908070799246
-0.0022689391609544
0.19923557180972
-0.0023742441291056
0.19940053934096
-0.0024858398952216
0.1995750907746
-0.0025872918301211
0.19976081495323
-0.0027028377297126
0.19995596780713
-0.0027948807328271
0.20016386080995
-0.0029197356665217
0.20037989272175
-0.0029909861282938
-0.0031383890295248
0.20061150707971
0.18647424542873
-5.7666176817768e-05
0.18648301591629
-0.00017230318211951
0.18649736786637
-0.00028572915647135
0.18651695104825
-0.00039672746292917
0.18654155687232
-0.00050595605380509
0.18657117165889
-0.00061457636334166
0.18660588589648
-0.00072320554158411
0.18664582512836
-0.00083204642909298
0.18669113170032
-0.00094116993513453
0.18674197548657
-0.0010507469777668
0.18679855106184
-0.0011608595849637
0.18686107218243
-0.0012716036846
0.18692974379937
-0.0013827465921274
0.18700477157433
-0.0014942773460022
0.1870863469
-0.0016058159853834
0.18717470967002
-0.0017178030111413
0.18727011074279
-0.0018298359658083
0.18737291830569
-0.0019431164072002
0.18748346861919
-0.0020564858388738
0.18760227769294
-0.0021721950168148
0.18772966994559
-0.0022869681297695
0.18786630829066
-0.0024055774891448
0.18801232984688
-0.0025202656688512
0.18816866559656
-0.0026421756285391
0.18833496683166
-0.0027535930492361
0.18851282420998
-0.0028806950921555
0.18870073622561
-0.0029827927329463
0.18890193177711
-0.0031209312028697
0.18911216538993
-0.0032012197266858
-0.0033648819358255
0.18933865831189
0.17600810798873
-6.0325386585533e-05
0.17601594435463
-0.00018013952763426
0.17602873223741
-0.00029851701871751
0.17604610568333
-0.00041410088830551
0.17606785118922
-0.00052770153934789
0.17609396160914
-0.00064068676299918
0.17612454013363
-0.00075378404608868
0.17615972698039
-0.00086723325597387
0.17619968107167
-0.00098112400685218
0.17624459065506
-0.0010956565417358
0.17629467233896
-0.0012109412497623
0.17635016342486
-0.0013270947515411
0.17641129656276
-0.0014438797114075
0.17647830514792
-0.0015612859126833
0.17655141600163
-0.0016789268209754
0.17663090389641
-0.0017972908879488
0.17671707042546
-0.0019160024772667
0.17681032985889
-0.0020363758232177
0.17691109215211
-0.0021572481150839
0.17701992733512
-0.0022810301830142
0.17713726253971
-0.0024043033179651
0.17726381119658
-0.0025321261298092
0.17739985404598
-0.0026563085024609
0.17754634814601
-0.0027886697129348
0.1777031551247
-0.0029104000126674
0.17787182838759
-0.0030493683399382
0.17805119183872
-0.0031621561693175
0.17824430181973
-0.0033140411694551
0.17844743383842
-0.0034043517315965
-0.0035848386268979
0.17866739054452
0.16612935828197
-6.2661670570785e-05
0.16613622040479
-0.00018700163102574
0.16614738001546
-0.00030967660981012
0.16616245896691
-0.00042917982017521
0.16618124033118
-0.00054648288423849
0.16620372241675
-0.00066316882932224
0.16623001855649
-0.00078008016688396
0.1662602804321
-0.00089749511280033
0.16629468002152
-0.0010155235778222
0.16633341994419
-0.0011343964461276
0.16637673456749
-0.0012542558551139
0.16642488006838
-0.0013752402346073
0.16647811247149
-0.0014971120969938
0.16653668821846
-0.0016198616422431
0.16660086593109
-0.0017431045164863
0.1666709506989
-0.0018673756387682
0.16674729204995
-0.0019923438116504
0.16683034437635
-0.0021194281331301
0.16692059019772
-0.0022474939203468
0.16701864564072
-0.0023790856101247
0.16712504493328
-0.0025107025950738
0.16724053997044
-0.0026476211517623
0.16736557227051
-0.0027813407877637
0.16750110097257
-0.0029241984004526
0.16764724238759
-0.0030565414135334
0.16780545781443
-0.0032075837528103
0.16797499618921
-0.0033316945304419
0.16815863194157
-0.0034976769084505
0.16835333809388
-0.0035990578710509
-0.0037968035640662
0.16856530304521
0.15680503471937
-6.4667682598314e-05
0.15681090257562
-0.00019286946849456
0.1568204028318
-0.00031917684710275
0.15683314860728
-0.00044192557687085
0.15684892092263
-0.00056225518112197
0.15686772216933
-0.00068197005782517
0.15688967286283
-0.00080203084262122
0.15691493252536
-0.00092275475787797
0.15694368216136
-0.0010442731968437
0.15697613426391
-0.0011668485319739
0.15701253601155
-0.0012906575864434
0.15705315713923
-0.0014158613461642
0.15709827173369
-0.0015422266756303
0.15714815382903
-0.0016697437218669
0.15720308872666
-0.0017980393986722
0.15726340588569
-0.0019276927824434
0.15732949798922
-0.0020584359001343
0.15740185234072
-0.0021917824697401
0.15748102028152
-0.0023266618466357
0.15756765408376
-0.0024657193981144
0.15766239681548
-0.0026054453129941
0.15776602328444
-0.0027512476072489
0.15787915284144
-0.002894470331766
0.15800271527846
-0.0030477608247843
0.15813713334752
-0.0031909594703308
0.15828369931872
-0.0033541497119532
0.15844221581847
-0.0034902110184071
0.15861499826765
-0.0036704593460445
0.15880000236927
-0.0037840619613646
-0.0039993010483067
0.15900249986623
0.14800402596958
-6.6342705102942e-05
0.14800889901208
-0.00019774249238766
0.14801674095212
-0.00032701876857653
0.1480271595658
-0.00045234417233006
0.14803993497799
-0.00057503057567759
0.14805507210968
-0.00069710717244724
0.14807269553687
-0.00081965425347898
0.14809296885974
-0.00094302806503219
0.14811607776834
-0.0010673820904328
0.14814223979238
-0.00119301054151
0.14817170945972
-0.0013201272398377
0.14820476447195
-0.0014489163447493
0.14824169094248
-0.0015791531328754
0.14828277470106
-0.0017108274673065
0.14832832126566
-0.0018435859503771
0.1483786781223
-0.0019780496262839
0.14843427359338
-0.0021140313586895
0.14849562043488
-0.0022531292988938
0.14856333131739
-0.0023943727171613
0.14863808548719
-0.0025404735562375
0.14872063029071
-0.0026879901053375
0.14881175006845
-0.0028423673742212
0.14891224882059
-0.002994969073682
0.1490230013702
-0.0031585133645898
0.14914477851645
-0.0033127366072345
0.14927863057297
-0.0034880017593944
0.1494250545003
-0.0036366349368844
0.14958564507063
-0.0038310499075675
0.14975976560987
-0.0039581824917451
-0.0041906478952902
0.14995111246728
0.13969696665273
-6.7692080202366e-05
0.13970086258589
-0.00020163840598822
0.13970707708163
-0.00033323324493602
0.13971521585848
-0.00046048293056926
0.13972505917935
-0.00058487387901897
0.13973661274349
-0.00070866072015175
0.139750002049
-0.00083304354376808
0.13976539118006
-0.00095841718195949
0.13978296627232
-0.0010849571696618
0.13980294501997
-0.0012129892769702
0.13982558350761
-0.0013427657160732
0.13985116162664
-0.0014744944528734
0.13987997095185
-0.0016079624476266
0.13991230347521
-0.0017431599804185
0.13994847728119
-0.0018797597463723
0.13998885203498
-0.0020184243701976
0.14003388112091
-0.0021590604349985
0.14008409692564
-0.002303345094204
0.14014015882825
-0.0024504346107356
0.14020277068752
-0.002603085406834
0.14027276501606
-0.0027579844257697
0.14035093971552
-0.0029205420660953
0.14043825855579
-0.0030822879070271
0.14053555074272
-0.0032558055451375
0.14064391271428
-0.0034210985729782
0.14076416771005
-0.0036082567496981
0.14089753700316
-0.003770004224718
0.14104481627279
-0.0039783291718087
0.14120701488107
-0.0041203810941874
-0.004369348027645
0.14138571502104
0.13185613856174
-6.8725891785431e-05
0.1318590902148
-0.00020459003580857
0.13186373416859
-0.00033787717551585
0.13186967718355
-0.00046642592357119
0.13187669999486
-0.00059189667015718
0.13188480718099
-0.00071676788793275
0.13189412215395
-0.00084235850028574
0.1319048058037
-0.00096910081695478
0.13191704064502
-0.0010971919978284
0.13193104009802
-0.0012269887180603
0.13194705662151
-0.0013587822287293
0.13196536657637
-0.0014928043975979
0.1319862603476
-0.0016288562093074
0.13201003034121
-0.0017669299647751
0.13203699905884
-0.0019067284550532
0.13206753283941
-0.0020489581419792
0.13210209714748
-0.0021936247345506
0.1321412404112
-0.0023424883496634
0.13218564626212
-0.0024948404538412
0.13223604971242
-0.0026534888498042
0.13229332896562
-0.0028152636723127
0.13235833014438
-0.0029855432389113
0.13243210288863
-0.0031560606461665
0.13251551385917
-0.0033392165113495
0.1326098393373
-0.0035154240475229
0.13271583276932
-0.0037142501786784
0.13283521797332
-0.0038893894259488
0.13296833543553
-0.0041114466310445
0.13311757800685
-0.0042696236617533
-0.004534184946555
0.13328241493152
0.1244553778451
-6.9457370240302e-05
0.12445742862454
-0.00020664078304498
0.12446057985364
-0.00034102837165944
0.12446444129202
-0.00047028733047
0.1244687933749
-0.00059624872399204
0.12447363811739
-0.00072161260402226
0.12447909497281
-0.00084781533194062
0.12448531806648
-0.00097532388919933
0.12449248171876
-0.001104355630758
0.12450078992115
-0.0012352969027452
0.12451048684527
-0.0013684791364835
0.12452183995137
-0.0015041574882575
0.12453513370311
-0.0016421499463164
0.12455065499536
-0.0017824512427375
0.12456872446061
-0.0019247979064036
0.12458970733451
-0.0020699410022443
0.12461407003784
-0.0022179874246262
0.12464236949875
-0.0023707877977255
0.12467529244928
-0.0025277633921214
0.12471360894264
-0.0026918053316454
0.12475819562485
-0.0028598503439377
0.1248099959291
-0.0030373435336145
0.12487002845892
-0.0032160931676193
0.12493938178716
-0.0034085698323828
0.12501920295453
-0.0035952452088073
0.12511062142298
-0.0038056686419731
0.12521507353835
-0.0039938415367627
0.12533343401288
-0.0042298071009932
0.12546844246013
-0.0044046321036089
-0.0046848543104615
0.12561911183171
0.11746998984119
-6.9903392096344e-05
0.11747119009369
-0.00020784098687961
0.11747294258058
-0.00034278080803038
0.11747485993066
-0.00047220463143039
0.11747672033032
-0.00059810907739343
0.11747852147124
-0.00072341370191565
0.11748037785171
-0.00084967167258271
0.11748243482998
-0.00097738083046776
0.11748485625199
-0.0011067770181846
0.11748783172339
-0.0012382723414903
0.11749159127205
-0.001372238654017
0.11749638609626
-0.0015089522824323
0.11750249144918
-0.0016482552700615
0.11751018236124
-0.0017901421262356
0.11751977639186
-0.0019343919089919
0.11753162580235
-0.0020817903852084
0.11754619614718
-0.0022325577424976
0.11756403160623
-0.0023886232305251
0.11758582076857
-0.0025495525291375
0.11761234230142
-0.002718326840339
0.11764446218722
-0.0028919702069917
0.11768321512193
-0.0030760964472271
0.11772950963249
-0.0032623876588196
0.11778481315483
-0.0034638733371622
0.11784979186921
-0.0036602239073638
0.11792677518013
-0.0038826519387082
0.11801538964523
-0.0040824559889803
0.11811936547283
-0.0043337829163422
0.11823699874137
-0.0045222653596218
-0.0048235061800572
0.11837565062614
0.1108766713591
-7.008979240922e-05
0.11087708497939
-0.00020825453583053
0.1108775499862
-0.00034324574078361
0.11087767973968
-0.00047233431222633
0.11087725137233
-0.00059768064048841
0.11087625510768
-0.00072241737126749
0.11087479782349
-0.00084821432584502
0.11087301397399
-0.00097559692141426
0.1108710572924
-0.0011048202795643
0.11086910129052
-0.0012363162845296
0.11086735875353
-0.0013704960635269
0.11086605932423
-0.0015076528008008
0.1108654660748
-0.0016476619692881
0.11086583513982
-0.001790511140666
0.11086748029407
-0.0019360370134438
0.11087072547671
-0.0020850355187855
0.11087604172028
-0.0022378739379564
0.11088392492729
-0.0023965063905243
0.11089509647011
-0.0025607240264367
0.11091026566947
-0.0027334959959884
0.11093037877931
-0.0029120832753921
0.1109563922428
-0.0031021098717642
0.11098928651216
-0.0032952818919473
0.1110306124441
-0.0035051992355226
0.11108073424057
-0.0037103456729679
0.11114329829043
-0.0039452159603837
0.11121560963756
-0.0041547673104402
0.11130737328223
-0.0044255465371848
0.11140332773837
-0.0046182197928069
-0.0049533868933933
0.11153320847741
0.10465342698894
-7.0050729826732e-05
0.10465314238877
-0.00020796984022022
0.10465244812114
-0.00034255137590752
0.10465096599042
-0.00047085208600881
0.1046484762787
-0.00059519083644674
0.10464495112221
-0.0007188921259555
0.1046404864308
-0.00084374954889807
0.10463521167984
-0.00097032208770597
0.10462926990134
-0.0010988784205591
0.10462281012268
-0.0012298564271518
0.10461602381583
-0.001363709679352
0.10460911901138
-0.0015007479201896
0.10460234959867
-0.0016408924813893
0.10459595714619
-0.0017841186139727
0.10459025153423
-0.0019303313282121
0.10458551744088
-0.0020803013532887
0.10458222944608
-0.0022345858722966
0.10458079767556
-0.0023950745508902
0.10458201000937
-0.0025619362933067
0.10458640428055
-0.0027378902030886
0.10459518017347
-0.0029208591075947
0.10460887097963
-0.0031158006210849
0.1046291416085
-0.0033155524678779
0.10465647675184
-0.0035325343298606
0.10469276739247
-0.003746636268507
0.10473944054049
-0.0039918890674979
0.10479671724591
-0.0042120439789733
0.10487374798263
-0.0045025772404708
0.104955922374
-0.0047003941530654
-0.0050724222334249
0.1050749577485
0.098779450888058
-6.9783247874351e-05
0.098778564073425
-0.00020708291414224
0.098776801184733
-0.00034078837497817
0.098773879649924
-0.00046793044085457
0.098769578745175
-0.00059088982421739
0.098763816283078
-0.00071312955931804
0.098756661781146
-0.00083659494504126
0.098748265452022
-0.00096192565870519
0.098738758676416
-0.0010893715466562
0.098728257360256
-0.0012193550138291
0.098716930197753
-0.001352382420623
0.098704948097777
-0.001488765724736
0.098692544315089
-0.0016284886040293
0.098679953577629
-0.0017715277826278
0.098667486444069
-0.0019178641017926
0.098655401500435
-0.0020682163179686
0.098644162316835
-0.0022233465986932
0.098634095726033
-0.0023850078722719
0.098626025216913
-0.0025538656995167
0.098620301157039
-0.0027321660625584
0.098618391532433
-0.0029189494073829
0.098620267799455
-0.0031176768179942
0.098628631128675
-0.0033239157327209
0.098642043964989
-0.0035459471073322
0.098665953546561
-0.003770545796871
0.098695044168977
-0.0040209796426533
0.098740143204124
-0.0042571429727701
0.09878893067662
-0.0045513646762615
0.098861480542948
-0.0047729439849194
0.099001253355849
-0.0052121950089792
0.39468844740695
0.0046422031226393
0.39020568532946
0.0044827621046367
0.38588688124755
0.0043188041087276
0.38173643688164
0.004150444392831
0.37775861234749
0.0039778245611986
0.37395752963053
0.0038010827443937
0.37033716533928
0.0036203643189534
0.36690134063463
0.0034358247328315
0.36365371384196
0.0032476268211552
0.36059777540975
0.0030559384611902
0.35773684408503
0.002860931353987
0.3550740630314
0.0026627810833946
0.35261239589874
0.0024616671626651
0.35035462263005
0.0022577732991615
0.34830333549148
0.0020512871692537
0.34646093518607
0.0018424003365232
0.34482962728173
0.0016313079355989
0.34341141878242
0.0014182085309725
0.34220811462446
0.0012033041897312
0.34122131406911
0.00098680058751483
0.34045240592309
0.00076890817825126
0.33990256216379
0.00054984379191804
0.33957272326162
0.00032983893486635
0.33946353136148
0.00010919193322855
0.33957566984339
-0.00011213844872364
0.33990948969764
-0.00033381982064456
0.34046496601682
-0.00055547628549612
0.34124192747128
-0.00077696142033588
0.34223997851823
-0.00099805101276761
0.34345849046718