/*--------------------------------*- C++ -*----------------------------------*\
| =========                 |                                                 |
| \\      /  F ield         | OpenFOAM: The Open Source CFD Toolbox           |
|  \\    /   O peration     | Version:  2112                                  |
|   \\  /    A nd           | Website:  www.openfoam.com                      |
|    \\/     M anipulation  |                                                 |
\*---------------------------------------------------------------------------*/
FoamFile
{
    version     2.0;
    format      ascii;
    arch        "LSB;label=32;scalar=64";
    class       surfaceScalarField;
    location    "7.7";
    object      phi;
}
// * * * * * * * * * * * * * * * * * * * * * * * * * * * * * * * * * * * * * //

dimensions      [0 3 -1 0 0 0 0];

oriented        oriented;

internalField   nonuniform List<scalar> 
43645
(
0.39512360162839
-4.7285149370378e-06
0.39513775241815
-1.4150731440442e-05
0.39516134920245
-2.3596721278116e-05
0.39519437219028
-3.302292273316e-05
0.39523676570468
-4.2393448989056e-05
0.39528845388542
-5.168811593493e-05
0.39534935396772
-6.0900018624248e-05
0.39541938315889
-7.0029128851742e-05
0.39549845732884
-7.9074109113971e-05
0.39558649556685
-8.8038178659148e-05
0.39568340634419
-9.6910719552072e-05
0.39578908031399
-0.00010567391351943
0.39590335687581
-0.00011427650706075
0.39602604424994
-0.00012268732081807
0.39615690685326
-0.00013086255145634
0.39629576142627
-0.00013885452246422
0.39644244586956
-0.00014668439403702
0.39659697206295
-0.00015452614526959
0.39675935411528
-0.00016238200529522
0.39692985585053
-0.00017050168911784
0.39710855556562
-0.00017869966980765
0.39729590388096
-0.00018734827069623
0.39749181765992
-0.00019591373492874
0.39769698751415
-0.00020516981058364
0.39791095540848
-0.00021396785104579
0.39813500053524
-0.0002240450836199
0.39836793723107
-0.0002329366528358
0.3986123297855
-0.0002443925119645
0.39886533929714
-0.00025300947004532
-0.00026672937316837
0.39913206871255
0.37294701857101
-9.1922534038016e-06
0.37296044223949
-2.7574302093093e-05
0.37298294929752
-4.6103679713058e-05
0.37301452113535
-6.4594661091911e-05
0.37305510164767
-8.2973863059141e-05
0.37310461906178
-0.00010120543349035
0.37316299749888
-0.00011927836114381
0.37323016111638
-0.00013719265378534
0.37330603135501
-0.00015494425730341
0.37339053098579
-0.00017253772107179
0.37348357043867
-0.0001899500862089
0.37358504026823
-0.00020714365894393
0.37369477785812
-0.00022401401491987
0.37381258644484
-0.00024049582749531
0.3739382235166
-0.00025649954513509
0.37407149546625
-0.00027212639582689
0.3742122300205
-0.00028741887374914
0.37436042528956
-0.00030272134128585
0.37451608572404
-0.00031804236818065
0.3746794585911
-0.00033387448575669
0.37485061587835
-0.00034985688773711
0.37502998526579
-0.00036671758963907
0.37521748477567
-0.00038341317707513
0.37541376893435
-0.00040145390202477
0.37561840072235
-0.00041859957224011
0.37583259961648
-0.00043824391112671
0.3760552496048
-0.00045558657471438
0.37628881066016
-0.00047795350170928
0.37653061913243
-0.00049481787894472
-0.00052172365734464
0.37678561348172
0.35201536907113
-1.3663702920212e-05
0.35202869817839
-4.0903307933081e-05
0.35205090423587
-6.8309635320806e-05
0.35208196178124
-9.5652105647336e-05
0.35212181822133
-0.00012283020423019
0.35217040611787
-0.00014979323328098
0.35222765377213
-0.00017652592103153
0.35229348991902
-0.0002030287086578
0.35236784038666
-0.00022929463539016
0.35245063152871
-0.0002553287759653
0.35254177546473
-0.00028109393755541
0.35264116275593
-0.00030653086782005
0.35274862804417
-0.00033147922324231
0.35286396975354
-0.00035583745914402
0.35298693651499
-0.00037946623105134
0.35311732375128
-0.00040251355849089
0.3532549435252
-0.00042503857591145
0.35339977829804
-0.00044755604390788
0.35355181236947
-0.00047007637086178
0.35371127643335
-0.00049333848198709
0.35387821977005
-0.00051680015781241
0.35405305507374
-0.00054155282736456
0.35423567338038
-0.00056603141835624
0.35442671707392
-0.00059249753045055
0.35462571086733
-0.00061759330072698
0.35483386889583
-0.00064640187457676
0.35505000924516
-0.00067172685886417
0.35527660935489
-0.00070455354674603
0.35551087149456
-0.00072907995602275
-0.00076865243009591
0.35575780033221
0.33225853562471
-1.8155279557046e-05
0.3322718573033
-5.4224893975924e-05
0.33229397524665
-9.0427485666974e-05
0.33232484333825
-0.00012652010518058
0.33236440445686
-0.00016239123244203
0.33241259441912
-0.00019798310708146
0.33246934711586
-0.00023327853144356
0.33253459700215
-0.00026827851074957
0.33260827434556
-0.0003029718968517
0.33269030826579
-0.0003373626164426
0.33278061075957
-0.00037139635388723
0.33287906984216
-0.00040498987513438
0.33298551373765
-0.00043792304568413
0.33309973203986
-0.00047005569033962
0.33322145976076
-0.00050119388296936
0.33335047747205
-0.00053153120255564
0.33348657744074
-0.00056113847910554
0.3336297244811
-0.00059070302018526
0.33377987978996
-0.00062023161697146
0.33393725760926
-0.00065071623955225
0.33410188148355
-0.00068142397128682
0.33427415117026
-0.00071382245386764
0.33445392557031
-0.00074580575872626
0.33464184030778
-0.00078041220844572
0.33483737199609
-0.00081312492975208
0.33504174416807
-0.00085077398712149
0.33525369110112
-0.00088367373236907
0.33547575236787
-0.0009266147544466
0.335704967392
-0.00095829492309239
-0.0010102443289987
0.33594655935029
0.31361059839356
-2.2696212907312e-05
0.31362399023161
-6.7616648093203e-05
0.31364614525682
-0.00011258242687601
0.31367699916042
-0.00015737392591553
0.31371649082077
-0.00020188281169971
0.31376455977763
-0.00024605198484148
0.3138211472237
-0.00028986590060247
0.31388619624097
-0.00033332745326636
0.31395964498296
-0.00037642056639123
0.31404142892951
-0.00041914649274634
0.31413146327266
-0.00046143062910886
0.31422963618928
-0.0005031627259787
0.31433577083713
-0.00054405762995536
0.3144496477855
-0.00058393257710468
0.31457098652967
-0.0006225325674732
0.31469955017856
-0.00066009479343342
0.31483510838784
-0.00069669663195093
0.31497760660231
-0.0007332011794799
0.3151269819732
-0.00076960693384418
0.31528343266428
-0.0008071668774299
0.31544695644579
-0.00084494770029961
0.3156179405141
-0.00088480647005454
0.31579620967453
-0.00092407486731571
0.31598239237246
-0.00096659485449428
0.31617591176065
-0.0010066442659666
0.3163780035958
-0.00105286576989
0.31658730685263
-0.0010929769364229
0.3168064371667
-0.0011457450158939
0.31703223518487
-0.0011840928901853
-0.0012481936729333
0.31727018458254
0.29600930306868
-2.729734737998e-05
0.2960227904023
-8.1103904226867e-05
0.29604501734766
-0.00013480929481204
0.29607590235423
-0.0001882588561326
0.29611538279624
-0.00024136317898348
0.29616340495649
-0.00029407407214474
0.2962199207025
-0.00034638157563
0.29628488549709
-0.00039829217882673
0.29635824939153
-0.00044978439386737
0.29643995828967
-0.00050085532594629
0.29652993446473
-0.00055140674133405
0.29662806974147
-0.00060129794187697
0.29673418517359
-0.00065017300325222
0.29684805456983
-0.00069780191635825
0.29696938372805
-0.00074386167051743
0.29709791954115
-0.00078863055290244
0.29723341057994
-0.0008321876186134
0.29737578402403
-0.00087557457263274
0.29752495516362
-0.00091877802361755
0.29768110703523
-0.00096331870002011
0.29784421429356
-0.0010080549103315
0.2980146511215
-0.0010552432501009
0.29819221043728
-0.0011016341355469
0.29837751056053
-0.0011518949302368
0.29856992216687
-0.0011990558248213
0.29877068839201
-0.0012536319472686
0.29897834942208
-0.0013006379184778
0.29919559530783
-0.0013629908539154
0.29941905031677
-0.0014075478528895
-0.0014836143364563
0.29965447102913
0.27939588911532
-3.1951876925844e-05
0.2794094483338
-9.4663054215456e-05
0.27943170457896
-0.00015706547171815
0.2794625600786
-0.00021911428859147
0.27950195296912
-0.00028075600389071
0.27954983931293
-0.0003419603520193
0.27960618521459
-0.00040272741519465
0.27967096253364
-0.00046306943761812
0.27974413769396
-0.00052295949587792
0.27982567183804
-0.00058238941360738
0.27991549944568
-0.00064123429452895
0.28001352113776
-0.00069931958135647
0.2801195611183
-0.00075621293307577
0.28023339129686
-0.00081163204586287
0.28035470876181
-0.0008651790880867
0.28048324836603
-0.00091717011112521
0.28061874239251
-0.00096768160045141
0.28076110305255
-0.00101793518906
0.28091022865327
-0.0010679035816925
0.28106628891616
-0.001119378920933
0.28122924040438
-0.0011710063571373
0.28139944343223
-0.0012254462368106
0.28157666436699
-0.0012788550293673
0.28176150667212
-0.0013367371943537
0.28195329406599
-0.0013908431775502
0.28215326832099
-0.0014536061607479
0.28235987574052
-0.0015072452961089
0.28257587189178
-0.0015789869633785
0.28279766288487
-0.0016293388053362
-0.0017172368584666
0.28303128545019
0.26371489687521
-3.6639242804984e-05
0.2637284656616
-0.00010823177891432
0.26375064721638
-0.00017924696503904
0.26378132903925
-0.00024979605094615
0.26382045224118
-0.00031987914663855
0.26386798560858
-0.00038949366164928
0.2639239131113
-0.00045865486170618
0.2639882272249
-0.00052738349656687
0.26406091557934
-0.00059564779735173
0.26414195981853
-0.00066343360145588
0.26423131241238
-0.00073058683876778
0.26432888874556
-0.00079689586653955
0.26443452269808
-0.00086184683927295
0.26454799064968
-0.00092509995263674
0.26466898805668
-0.0009861764517558
0.26479724391265
-0.0010454259250431
0.26493248149606
-0.0011029191430454
0.26507460310694
-0.0011600567601096
0.26522349733231
-0.001216797768155
0.26537932349032
-0.0012752050407153
0.26554202762479
-0.0013337104539758
0.26571195595129
-0.0013953745260287
0.26588885686252
-0.0014557559036041
0.2660733145062
-0.0015211948011143
0.26626461609742
-0.0015821447318582
0.2664639925419
-0.0016529825681485
0.266669807386
-0.0017130601029344
0.26688486873622
-0.0017940482766012
0.26710537049736
-0.0018498405305922
-0.0019494890103863
0.2673376226876
0.24891398207276
-4.1328573882066e-05
0.24892746913243
-0.00012171878490228
0.24894942663285
-0.0002012044120379
0.24897972924477
-0.00028009861027116
0.24901832324557
-0.00035847309601235
0.24906519284152
-0.00043636320739813
0.24912034315842
-0.00051380512975864
0.24918379114702
-0.00059083143766069
0.24925555018396
-0.00066740678823522
0.24933562744252
-0.00074351081537435
0.24942399916177
-0.00081895851487911
0.24952060164908
-0.00089349831210546
0.24962528562729
-0.0009665307771907
0.24973783922614
-0.0010376535124981
0.24985796485684
-0.0011063020447537
0.2499853933707
-0.001172854402324
0.25011984838582
-0.0012373741226421
0.25026122894064
-0.0013014372802637
0.25040942337048
-0.001364992164105
0.2505645848515
-0.0014303664884269
0.25072665892975
-0.0014957844994053
0.2508959787446
-0.0015646943083492
0.25107228660528
-0.0016320637319624
0.25125614401672
-0.0017050521802661
0.25144681594515
-0.0017728166279691
0.25164551320574
-0.0018516797962406
0.25185053277601
-0.0019180796405037
0.25206472005556
-0.0020082355236749
0.25228407062399
-0.0020691910674514
-0.0021805713765562
0.25251515302407
0.23494374086535
-4.5981833515482e-05
0.23495703517184
-0.00013501304391439
0.23497858928826
-0.0002227584811832
0.23500826708587
-0.0003097763612776
0.23504602187185
-0.00039622783631653
0.23509185538942
-0.00048219668025233
0.23514579653813
-0.00056774623484151
0.23520788988781
-0.00065292474477506
0.2352781784251
-0.00073769528415446
0.2353566992449
-0.00082203159495128
0.2354434576678
-0.00090571689880068
0.23553841674823
-0.00098845735473007
0.23564145129001
-0.0010695652823755
0.23575236875168
-0.0011485709386977
0.23587088787714
-0.0012248211358479
0.23599674997675
-0.001298716468557
0.23612968970058
-0.0013703138140287
0.23626961059799
-0.0014413581460123
0.2364164118512
-0.0015117933863814
0.23657024596442
-0.0015842005712781
0.23673106999483
-0.001656608499928
0.23689920652301
-0.0017328308070021
0.2370744060945
-0.0018072632741711
0.23725720620856
-0.0018878522652023
0.23744686737583
-0.0019624777661833
0.23764457313988
-0.0020493855312198
0.23784857438196
-0.0021220808534411
0.23806173913215
-0.0022214002450779
0.2382798855855
-0.0022873374928986
-0.0024105062488052
0.23850982048772
0.22175754479082
-5.0556794674221e-05
0.22177052420595
-0.00014799241782273
0.22179147994399
-0.00024371417815239
0.22182026694245
-0.00033856331918145
0.22185684687329
-0.00043280772734379
0.22190124037539
-0.00052659014329417
0.22195350187164
-0.0006200076928895
0.22201370570827
-0.0007131285440408
0.22208192731399
-0.00080591685346231
0.22215823704048
-0.000898341285942
0.22224267363935
-0.00099015346316924
0.22233523188116
-0.0010810155629942
0.22243581731387
-0.0011701506825418
0.22254426391649
-0.0012570175096949
0.22266031620106
-0.0013408733897043
0.22278373473289
-0.0014221349705129
0.22291427643952
-0.0015008554915563
0.22305185774135
-0.0015789394194327
0.22319640069235
-0.0016563363095698
0.22334806355778
-0.0017358634094017
0.22350682825242
-0.0018153731676725
0.22367301100094
-0.001899013528953
0.22384638708244
-0.0019806393293182
0.22402747116105
-0.0020689363176112
0.22421553976457
-0.0021505463435656
0.22441174513323
-0.0022455908737711
0.22461431697157
-0.0023246526656205
0.22482613304388
-0.0024332162916042
0.22504286378639
-0.0025040682103889
-0.0026391718025931
0.22527152936712
0.20931138511539
-5.5009925200732e-05
0.20932392410339
-0.00016053136952067
0.20934408389082
-0.00026387392932962
0.20937171168273
-0.00036619107521271
0.20940677815031
-0.00046787415958807
0.20944932335695
-0.00056913531513912
0.20949942798452
-0.00067011228628354
0.20955719706826
-0.00077089759424064
0.20962273997511
-0.00087145972747384
0.20969616226015
-0.00097176353884522
0.20977753912418
-0.0010715302958393
0.20986690076262
-0.0011703771708245
0.20996418904031
-0.0012674389304197
0.21006927072254
-0.0013620991628773
0.21018192486566
-0.0014535275045259
0.21030193961108
-0.0015421496883449
0.21042910518294
-0.0016280210364922
0.21056335923435
-0.0017131934445479
0.21070465884747
-0.001797635896934
0.21085317505282
-0.0018843795894927
0.21100892863595
-0.001971126725934
0.2111722351221
-0.0020623199905955
0.21134291215472
-0.0021513163376601
0.21152145536778
-0.0022474795066313
0.21170718039659
-0.0023362713484301
0.21190120726037
-0.0024396177137383
0.21210177387655
-0.0025252192580061
0.21231175629126
-0.0026431986829523
0.21252671706351
-0.0027190289600067
-0.002866311595996
0.21275385688126
0.19756372593763
-5.9299302228654e-05
0.19757570363769
-0.00017250903761482
0.19759487925288
-0.00028304951251756
0.19762109263469
-0.0003924044252631
0.19765432362114
-0.00050110511464266
0.19769463148217
-0.00060944314514753
0.19774212277674
-0.00071760355027799
0.19779693282577
-0.0008257076131333
0.19785920500188
-0.00093373187397132
0.19792908047549
-0.0010416389833489
0.19800667234966
-0.0011491221414909
0.19809204839232
-0.0012557531855523
0.19818519085219
-0.0013605813629659
0.19828600415937
-0.0014629124433456
0.19839430939001
-0.0015618327090476
0.19850992947488
-0.0016577697477175
0.19863269793122
-0.0017507894678859
0.19876258135855
-0.0018430768474951
0.19889958329954
-0.0019346378139983
0.19904389459017
-0.0020286908566921
0.19919558866392
-0.0021228207765993
0.19935498701397
-0.0022217183179352
0.19952196801719
-0.0023182973183977
0.19969701416371
-0.0024225256309231
0.19987950499712
-0.0025187621597099
0.20007052985403
-0.002630642548698
0.2002683697059
-0.0027230590879225
0.20047588702198
-0.0028507159775208
0.2006885906666
-0.0029317325837704
-0.0030915389789593
0.20091381807205
0.18647536372852
-6.3385633431783e-05
0.18648667259844
-0.00018381787886164
0.18650469505613
-0.00030107194141011
0.18652926512933
-0.00041697446978566
0.18656037151571
-0.00053221147258917
0.18659809154391
-0.00064716314514148
0.18664255629216
-0.00076206827063701
0.18669392987991
-0.00087708117328957
0.18675238846166
-0.00099219042849731
0.18681810767021
-0.0011073581650567
0.18689123830009
-0.0012222527449525
0.186971886109
-0.0013364009685041
0.18706007598276
-0.0014487712112274
0.18715575314407
-0.0015585895796657
0.18725878633115
-0.0016648658716073
0.18736903888263
-0.0017680222752292
0.18748639587065
-0.0018681464323973
0.18761085928454
-0.0019675402384232
0.18774248906462
-0.0020662675715499
0.1878815022774
-0.0021677040474535
0.18802803770853
-0.0022693561860594
0.18818242973185
-0.00237611032002
0.18834463552835
-0.0024805030938984
0.1885151315616
-0.0025930216435029
0.18869338811478
-0.0026970186923167
0.18888046620465
-0.0028177206182111
0.18907473074883
-0.0029173236117512
0.18927901526804
-0.0030550004768064
0.18948884637932
-0.003141563675651
-0.0033143283745162
0.18971163579583
0.17600929760233
-6.7234451017523e-05
0.17601984640952
-0.0001943666599637
0.17603657258901
-0.00031779809461244
0.17605930594713
-0.0004397078016565
0.17608804353222
-0.00056094903159886
0.17612287898582
-0.00068199857283336
0.17616396550455
-0.00080315476368467
0.17621149320802
-0.00092460885133333
0.1762656683769
-0.0010463655722364
0.17632669869293
-0.0011683884562684
0.17639477090839
-0.0012903249359313
0.17647002739431
-0.0014116574303082
0.17655253597853
-0.0015312797716965
0.17664228387517
-0.0016483374529736
0.17673919093417
-0.0017617729076734
0.17684316458014
-0.0018719958987547
0.17695414740369
-0.0019791292339118
0.17707218150972
-0.0020855743229583
0.17719739095967
-0.0021914770004159
0.17733002426031
-0.0023003373275661
0.17747029636801
-0.0024096282736052
0.17761856086073
-0.0025243747930882
0.177774870854
-0.002636813067769
0.17793970348734
-0.0027578542578407
0.17811264785045
-0.0028699630365311
0.17829473820536
-0.0029998109544423
0.17848447232277
-0.0031070577104247
0.17868463226701
-0.0032551604026472
0.17889085556412
-0.0033477869547062
-0.0035340117419936
0.17911053895127
0.16613060490769
-7.0817355830853e-05
0.1661403205184
-0.00020408224643299
0.16615563743694
-0.00033311498871262
0.16617638259156
-0.00046045293187661
0.16620256038318
-0.00058712679899236
0.16623427840664
-0.00071371657227791
0.16627170883418
-0.00084058516748977
0.16631506409509
-0.00096796408879752
0.16636457674273
-0.0010958781967691
0.16642048255153
-0.0012242942423093
0.16648300084665
-0.0013528432086367
0.16655230795446
-0.0014809645160582
0.16662851307775
-0.0016074848732623
0.16671164469848
-0.0017314690523646
0.16680167486046
-0.0018518030486624
0.16689855668916
-0.001968877706919
0.16700229348597
-0.0020828660105878
0.16711297020902
-0.0021962510264315
0.16723077984692
-0.0023092866191767
0.16735600595792
-0.0024255634200461
0.16748894781432
-0.002542570111932
0.16762998346199
-0.0026654104232715
0.16777927712065
-0.0027861067092765
0.16793731175071
-0.0029158888712139
0.16810382359084
-0.0030364748600819
0.1682798176152
-0.0031758049624404
0.16846398129585
-0.0032912213745512
0.16865901453538
-0.0034501936258015
0.16886079042463
-0.0035495628276045
-0.0037497745304338
0.16907655323121
0.1568063239473
-7.4112591525021e-05
0.15681515296912
-0.00021291124525372
0.15682898021873
-0.00034694221522097
0.15684763086626
-0.00047910355650409
0.15687111541658
-0.00061061132675856
0.15689955258776
-0.00074215372131449
0.15693312971185
-0.00087416226994032
0.1569720771338
-0.0010069114896275
0.15701664894854
-0.0011404499909287
0.15706710421881
-0.0012747494925234
0.15712369008412
-0.0014094290543601
0.1571866125339
-0.0015438869466997
0.15725601878197
-0.0016768911025829
0.157331976504
-0.0018074267560507
0.15741450845716
-0.0019343349838245
0.15750361324962
-0.0020579824818566
0.15759935487748
-0.0021786076213248
0.15770186210729
-0.0022987582397146
0.15781139777311
-0.0024188222689673
0.15792828277961
-0.0025424484112229
0.1580529045518
-0.0026671918693401
0.15818567028372
-0.0027981761411195
0.15832686720301
-0.0029273036149419
0.15847698872162
-0.0030660103767355
0.15863594493149
-0.0031954310570134
0.15880470303802
-0.0033445630561933
0.15898219780313
-0.0034687161265534
0.15917099232269
-0.0036389881320883
0.15936743816245
-0.0037460086536026
-0.0039606300374767
0.1595782936854
0.1480053437168
-7.7105357184094e-05
0.14801325297127
-0.00022082047703216
0.14802554318725
-0.00035923240860246
0.14804203881431
-0.00049559916154515
0.14806275498216
-0.00063132747338097
0.14808781849871
-0.00076721721753388
0.14811742769284
-0.00090377144470744
0.14815182597075
-0.0010413097491653
0.1481912834681
-0.0011799074708643
0.14823607702159
-0.0013195430294805
0.14828647580319
-0.0014598278201877
0.14834271051072
-0.0016001216391206
0.14840496122088
-0.0017391417981534
0.14847333145399
-0.0018757969750762
0.14854789094878
-0.0020088944649228
0.14862868236287
-0.0021387738827693
0.14871582642705
-0.002265751672784
0.14880949577087
-0.0023924275714544
0.14891001840994
-0.0025193448965452
0.14901775537489
-0.0026501853654903
0.14913317842927
-0.0027826149137244
0.14925673086721
-0.0029217285699288
0.14938882565388
-0.0030593983930715
0.14952997594541
-0.0032071606604008
0.14968028845771
-0.0033457435616416
0.14984068831181
-0.0035049629027374
0.15001041665676
-0.0036384444634165
0.15019182938993
-0.0038204008565412
0.15038191353338
-0.0039360927871053
-0.0041654583251687
0.15058674183373
0.13969829937383
-7.9787448684939e-05
0.1397052754879
-0.00022779656652429
0.13971601358289
-0.00036997047928655
0.13973033810789
-0.00050992366349044
0.13974826700805
-0.00064925635207377
0.1397699319719
-0.00078888216162581
0.13979553821567
-0.00092937767049604
0.13982533754662
-0.0010711090638674
0.13985961045736
-0.0012141803669528
0.1398986455937
-0.0013585781526088
0.1399427273339
-0.0015039095483424
0.13999210538488
-0.0016494996790464
0.14004698618349
-0.0017940225864408
0.14010750536661
-0.0019363161485218
0.14017377344135
-0.0020751625304929
0.1402458756924
-0.0022108761252302
0.14032398154559
-0.0023438575179013
0.14040830805593
-0.0024767540744577
0.1404992357212
-0.0026102725551867
0.14059717244649
-0.0027481220851173
0.14070265675304
-0.0028880992154749
0.14081618581093
-0.0030352576241022
0.14093827836763
-0.003181490946873
0.14106949293571
-0.0033383752264456
0.14121012964681
-0.0034863802710527
0.14136109038868
-0.0036559236430565
0.14152199404629
-0.0037993481187788
0.14169491853987
-0.0039933253467429
0.14187744636585
-0.0041186206075745
-0.0043631362865948
0.14207512433621
0.13185747332291
-8.2156014409098e-05
0.13186351970089
-0.00023384291315344
0.13187271981552
-0.00037917056258432
0.13188489858995
-0.00052210240857302
0.13190007424744
-0.00066443198292533
0.1319183796656
-0.00080718755602519
0.13194002255169
-0.00095102053568348
0.13196525826096
-0.0010963447549232
0.13199437217805
-0.00124329426823
0.13202765918525
-0.0013918651460686
0.13206541230778
-0.0015416626587997
0.13210789435463
-0.0016919817151545
0.13215533077119
-0.0018414589932487
0.13220788480201
-0.0019888701704245
0.13226569996847
-0.0021329776886658
0.13232890185456
-0.002274078003707
0.1323976969884
-0.0024126526447856
0.13247234831376
-0.002551405393725
0.13255326804356
-0.0026911922797726
0.13264092413793
-0.0028357781754775
0.13273588531576
-0.0029830603904545
0.13283874319817
-0.0031381155050753
0.13295006060834
-0.0032928083567858
0.13307051739137
-0.0034588320104683
0.13320051608269
-0.00361637896405
0.13334102680835
-0.0037964343707844
0.1334920463299
-0.003950367641784
0.13365536672446
-0.0041566457413251
0.13382946122521
-0.0042927151055141
-0.004552025717365
0.1340183506629
0.12445670295068
-8.42125861302e-05
0.12446183600257
-0.00023897591800746
0.12446953645322
-0.00038687096494661
0.12447962901047
-0.00053219491984925
0.12449212997472
-0.00067693290497386
0.1245071709125
-0.00082222845572652
0.12452495818207
-0.00096880777117698
0.12454574517173
-0.0011171317141725
0.12456981550874
-0.0012673645779897
0.12459746325966
-0.0014195128723966
0.12462898359408
-0.0015731829706996
0.12466464653319
-0.0017276446333978
0.1247046911997
-0.0018815036401
0.12474930429944
-0.002033483251519
0.12479865694389
-0.0021823303152626
0.12485291011222
-0.0023283311550297
0.12491229580184
-0.002472038318246
0.12497711728617
-0.0026162268629975
0.12504779650012
-0.0027618714798708
0.12512486987708
-0.00291285154018
0.12520889174211
-0.0030670822448908
0.1253006035685
-0.0032298273228567
0.12540050646242
-0.0033927112439383
0.12550957091637
-0.0035678964595777
0.1256280376872
-0.0037348457314627
0.12575730716384
-0.0039257038451224
0.12589716140594
-0.0040902218815958
0.12604986511755
-0.0043093494495896
0.12621451111042
-0.0044573610922694
-0.0047321970111401
0.12639468241476
0.11747129591317
-8.5964658209792e-05
0.11747554530858
-0.000243225238508
0.11748180738336
-0.00039313296182753
0.11748990169008
-0.00054028915085771
0.11749984081803
-0.00068687196160219
0.11751175437698
-0.00083414194834939
0.1175258451147
-0.00098289844742084
0.11754236133917
-0.0011336478814856
0.11756158015293
-0.0012865833382408
0.11758378711618
-0.0014417197850881
0.11760927188206
-0.0015986676883368
0.1176383025659
-0.001756675270772
0.11767112696073
-0.0019143279898504
0.11770794876554
-0.0020703050123764
0.11774896682259
-0.0022233483293842
0.1177943696062
-0.0023737338967606
0.11784441411695
-0.0025220827882927
0.11789942406271
-0.0026712367695336
0.11795982807687
-0.0028222754565616
0.11802620194209
-0.0029792253701574
0.11809908101928
-0.0031399612893782
0.1181793477166
-0.0033100939904174
0.1182673870302
-0.0034807505307182
0.11836460009401
-0.0036651094995922
0.11847074549868
-0.0038409911150997
0.11858838855571
-0.0040433468836002
0.11871561466187
-0.0042174479708914
0.11885745274511
-0.004451187516345
0.1190092146937
-0.0046091230232184
-0.0049060308668509
0.1191830485714
0.11087795136843
-8.7431032553993e-05
0.11088136995695
-0.00024664371454825
0.11088628434794
-0.00039804723596751
0.1108924990594
-0.00054650374761561
0.11090002390165
-0.00069439669386801
0.11090898562054
-0.00084310356269194
0.1109195782784
-0.00099349100584052
0.11093204137085
-0.0011461108789491
0.11094664387805
-0.0013011857540602
0.11096366067609
-0.0014587364946084
0.11098337408265
-0.0016183810085413
0.11100604644791
-0.0017793475514157
0.11103193447955
-0.0019402159382198
0.11106125051317
-0.0020996209639856
0.11109421616873
-0.0022563139040981
0.11113102642264
-0.0024105440711924
0.11117196733123
-0.002563023618948
0.1112173466632
-0.0027166160256414
0.11126763695863
-0.0028725656786544
0.11132336514845
-0.0030349534899662
0.11138516897413
-0.0032017650488726
0.11145384882676
-0.0033787737813407
0.11152995907732
-0.0035568607240976
0.11161488790449
-0.0037500382743621
0.11170839255687
-0.0039344957197167
0.11181379684881
-0.0041487511327481
0.11192784743464
-0.0043314985182611
0.11205874132765
-0.0045820813744487
0.11219399882649
-0.004744380488902
-0.0050760623427789
0.11236403033788
0.10465466901489
-8.8633945594022e-05
0.10465734782072
-0.00024932236859282
0.10466102723575
-0.00040172649636408
0.10466550448631
-0.00055098084613907
0.10467079311903
-0.00069968517932689
0.1046770093072
-0.00084931960876362
0.10468433550696
-0.0010008170682525
0.10469299553051
-0.0011547707690095
0.10470325064964
-0.0013114407427663
0.10471536420045
-0.0014708499172295
0.10472960330148
-0.0016326199831449
0.10474622417947
-0.0017959683043376
0.10476550313535
-0.0019594947702888
0.10478767376549
-0.0021217914715097
0.10481298507764
-0.0022816250949829
0.1048416193915
-0.002439178265397
0.10487387883472
-0.0025952829446327
0.10490999682031
-0.0027527338964726
0.10495051778076
-0.0029130865280982
0.10499578866286
-0.003080224265884
0.10504675577285
-0.0032527320585168
0.10510373310259
-0.0034357510173134
0.1051681533793
-0.0036212809139364
0.10524005947991
-0.0038219442950525
0.10532138843212
-0.0040158245995454
0.10541217739746
-0.0042395400337322
0.10551428780554
-0.0044336088703981
0.10563156400883
-0.0046993575291466
0.10575830210741
-0.0048711185453013
-0.0052354647211829
0.10591770452882
0.098780607247672
-8.9522761056371e-05
0.098782649390674
-0.00025136433403858
0.098785170173224
-0.00040424710002847
0.098788060848661
-0.00055387134548589
0.09879133671304
-0.00070296087172507
0.098795085321415
-0.00085306804934038
0.098799493162629
-0.0010052247451124
0.098804767499242
-0.0011600449438496
0.098811138988883
-0.0013178120722992
0.098818827831732
-0.0014785386010633
0.09882805680056
-0.0016418487936221
0.098839038766951
-0.0018069501129661
0.098852036828411
-0.00197249267456
0.098867313777173
-0.002137068263902
0.098885191185613
-0.0022995023481357
0.098905902385151
-0.0024598893113094
0.098929792752253
-0.0026191731604934
0.098957037775255
-0.0027799787718789
0.098988230985738
-0.0029442795960938
0.099023516598073
-0.0031155097427273
0.099064146371444
-0.0032933617048855
0.099109902413077
-0.0034815069416014
0.099163365044854
-0.0036747434382736
0.099222670759108
-0.0038812499122733
0.099293451315744
-0.0040866050701261
0.099369221437654
-0.0043153100822439
0.099462359808813
-0.0045267471809693
0.099558144679398
-0.004795142350616
0.099679705362244
-0.0049926791874761
0.099854192257186
-0.0054099515764027
0.39450232503426
0.004629743720705
0.39003611786533
0.0044662072102957
0.38573817547144
0.0042979424348373
0.38161303239262
0.0041251431198457
0.37766500336156
0.0039480290723316
0.37389818699997
0.0037668164033063
0.37031646820215
0.0035817188399362
0.366923522196
0.0033929460487696
0.36372282194515
0.0032007002938576
0.36071764607301
0.0030051759155962
0.35791108689078
0.0028065592259774
0.35530605602492
0.002605030909952
0.35290528886351
0.0024007672056809
0.35071134648648
0.0021939424215342
0.34872661728357
0.0019847292474453
0.34695331723772
0.0017733000904793
0.34539349044927
0.0015598268329815
0.34404900908324
0.0013444814105315
0.34292157255396
0.0011274365735608
0.34201270579302
0.00090886680506719
0.34132375357823
0.00068895225859957
0.34085586944536
0.00046788417647
0.3406099798946
0.00024588959397167
0.34058646573242
2.3514205143429e-05
0.34078672796151
-0.00020026218652395
0.34121070499778
-0.00042397699394909
0.34185848110499
-0.00064777606529169
0.3427299352546
-0.00087145410790686
0.34382468852003
-0.0010947532241187
0.34514209744546
-0.0013174088843224
0.34668125527684
-0.0015391577906681