/*--------------------------------*- C++ -*----------------------------------*\
| =========                 |                                                 |
| \\      /  F ield         | OpenFOAM: The Open Source CFD Toolbox           |
|  \\    /   O peration     | Version:  2112                                  |
|   \\  /    A nd           | Website:  www.openfoam.com                      |
|    \\/     M anipulation  |                                                 |
\*---------------------------------------------------------------------------*/
FoamFile
{
    version     2.0;
    format      ascii;
    arch        "LSB;label=32;scalar=64";
    class       surfaceScalarField;
    location    "14.4";
    object      phi;
}
// * * * * * * * * * * * * * * * * * * * * * * * * * * * * * * * * * * * * * //

dimensions      [0 3 -1 0 0 0 0];

oriented        oriented;

internalField   nonuniform List<scalar> 
43645
(
0.39512382747465
-4.9543816492218e-06
0.39513863504367
-1.4807534218413e-05
0.39516325800179
-2.4622920434292e-05
0.39519768813801
-3.4430097250158e-05
0.39524190062303
-4.421244582884e-05
0.39529587178371
-5.3971121842237e-05
0.39535959124143
-6.3719419559717e-05
0.39543305760515
-7.3466326328172e-05
0.39551625696055
-8.3199318904608e-05
0.39560914610903
-9.2889112828683e-05
0.3957116404042
-0.00010249426043538
0.39582362516486
-0.00011198472678297
0.39594495888013
-0.00012133368227781
0.39607550103632
-0.00013054212399694
0.39621509874162
-0.00013959767394966
0.39636362277167
-0.0001485239994074
0.39652091334238
-0.00015729054081799
0.3966868515183
-0.00016593814662981
0.39686123393662
-0.0001743823896463
0.39704394689251
-0.00018271292767218
0.39723468990786
-0.00019074298761953
0.39743339084158
-0.0001987009062818
0.39763957566348
-0.00020618479479548
0.39785333131873
-0.00021375562830232
0.39807384747709
-0.00022051613160101
0.39830163652755
-0.00022778902371114
0.39853516160484
-0.00023352505062008
0.39877595506988
-0.00024079343861519
0.39902084345328
-0.00024488835746839
-0.0002528533551249
0.39927369683481
0.3729471488285
-9.5484165627745e-06
0.37296095904514
-2.8617693806772e-05
0.37298413235158
-4.7796168734597e-05
0.37301665674764
-6.6954435175527e-05
0.37305851028759
-8.6065928354169e-05
0.37310967891101
-0.00010513968877574
0.37317016319332
-0.00012420364653964
0.37323997119914
-0.00014327427794603
0.37331909778315
-0.00016232584993681
0.37340751012064
-0.00018130139850797
0.37350513722783
-0.00020012131703971
0.37361188155994
-0.00021872900944278
0.37372762128605
-0.00023707336015107
0.37385223662096
-0.00025515741172069
0.37398559534545
-0.00027295635236988
0.37412758804626
-0.0002905166550711
0.37427807420861
-0.00030777665899867
0.37443695356298
-0.0003248174575913
0.37460404225785
-0.00034147104187978
0.37477924584011
-0.00035791646786243
0.37496228542353
-0.00037378252955318
0.37515310831597
-0.00038952375758297
0.37535126468432
-0.00040434112239871
0.37555685853571
-0.00041934943910192
0.3757691094732
-0.00043276702870888
0.37598854136388
-0.00044722087399528
0.37621366557356
-0.00045864921996909
0.37644601327673
-0.00047314110184857
0.37668250951586
-0.0004813845579628
-0.00049735991640448
0.37692701611694
0.35201535851308
-1.4009348625034e-05
0.35202874274348
-4.2001864598915e-05
0.35205109504895
-7.0148414335221e-05
0.35208242444951
-9.8283776454858e-05
0.35212272666677
-0.00012636808745078
0.3521720020032
-0.00015441496828373
0.35223026209689
-0.00018246368471824
0.35229752372975
-0.00021053585661773
0.35237379075409
-0.00023859282153353
0.35245904341238
-0.00026655400539782
0.35255322959559
-0.00029430745029911
0.35265627690137
-0.00032177626656574
0.35276809198662
-0.00034888839813047
0.35288858574298
-0.00037565112200714
0.35301765451566
-0.00040202508023006
0.35315521757257
-0.00042807966817452
0.353301158314
-0.00045371735769912
0.35345540399187
-0.00047906309349879
0.35361779161208
-0.00050385862095692
0.35378825866352
-0.00052838347868636
0.35396654354661
-0.00055206737261111
0.3541526343151
-0.00057561448628691
0.35434608608048
-0.00059779284831992
0.35454705889596
-0.00062032221513115
0.35475474699623
-0.00064045508964192
0.3549697649058
-0.00066223874400049
0.3551905323209
-0.0006794165954334
0.35541874887002
-0.00070135761149239
0.35565109865023
-0.00071373429991928
-0.0007380170859418
0.35589175585956
0.33225834619181
-1.8311530328722e-05
0.33227127526857
-5.4930887888116e-05
0.33229286342345
-9.1736515429169e-05
0.33232312173806
-0.0001285420377426
0.3323620585992
-0.00016530489625282
0.33240969224269
-0.00020204856050195
0.33246604998737
-0.0002388213793864
0.33253116020056
-0.00027564602097741
0.33260503742644
-0.00031246999989784
0.33268767730103
-0.0003491938336772
0.33277905046605
-0.00038568057034291
0.33287911563039
-0.00042184138711047
0.33298781505079
-0.00045758777602267
0.3331050985354
-0.00049293456518106
0.33323089857633
-0.00052782508090394
0.33336517129526
-0.00056235234775235
0.33350783019061
-0.00059637621468896
0.33365883813083
-0.00063007099603312
0.33381805760918
-0.00066307806239986
0.33398546780571
-0.00069579363875568
0.33416082660191
-0.00072742613288338
0.33434417617974
-0.00075896402839748
0.33453507260246
-0.00078868923563059
0.33473375296028
-0.00081900253752891
0.33493936908661
-0.0008460711806571
0.33515266681935
-0.00087553644122129
0.33537193397797
-0.00089868371848669
0.3355991310663
-0.00092855466441232
0.33583062096252
-0.00094522416189742
-0.00097852800607793
0.33607113191843
0.3136101978492
-2.2451954106737e-05
0.3136226684454
-6.7401435772466e-05
0.31364350093779
-0.0001125689593905
0.31367271487882
-0.00015775593092644
0.31371033340596
-0.00020292337657675
0.31375639448666
-0.00024810959548751
0.31381094368948
-0.00029337053777552
0.31387402394707
-0.00033872623533005
0.31394566363539
-0.00038410964633354
0.31402587755812
-0.00042940771573572
0.31411466381838
-0.00047446679129162
0.3142120182714
-0.00051919580198718
0.31431792555508
-0.00056349502284617
0.31443238207083
-0.00060739104511679
0.31455536382775
-0.00065080680316099
0.31468687189425
-0.00069386038042831
0.31482685677287
-0.0007363610604279
0.31497532559675
-0.00077853978763023
0.3151321726277
-0.00081992506176165
0.31529742909936
-0.0008610500791554
0.31547087725039
-0.00090087425309885
0.31565262697362
-0.00094071372088472
0.31584223606682
-0.00097829829827485
0.31604003856078
-0.0010168050007658
0.31624513528156
-0.0010511678706924
0.3164584370522
-0.00108883818072
0.31667806990006
-0.001118316535012
0.31690631604465
-0.0011568007776095
0.31713913525553
-0.0011780433422507
-0.0012213131431749
0.3173819204249
0.29600866958056
-2.6419632475995e-05
0.29602065200841
-7.9383818816259e-05
0.29604068055879
-0.00013259746494122
0.29606878650264
-0.00018586183050204
0.29610501106016
-0.00023914789075484
0.29614941508654
-0.00029251357951958
0.29620206518235
-0.00034602059239344
0.29626302142335
-0.00039968243620717
0.29633232877605
-0.00045341696013459
0.29641002475969
-0.00050710366157984
0.29649613949885
-0.00056058149391345
0.29659071177967
-0.00061376804733372
0.29669377512575
-0.00066655833464945
0.29680537982588
-0.00071899571193329
0.29692555257477
-0.00077097951982822
0.29705434719435
-0.00082265496856389
0.29719175825607
-0.00087377209161364
0.29733784565781
-0.000924627159413
0.2974925424297
-0.00097462180437456
0.29765594202436
-0.0010244496448858
0.29782785751361
-0.0010727897138725
0.29800847929534
-0.0011213354742493
0.29819737076978
-0.0011671897445983
0.29839497990778
-0.0012144141105329
0.29860035341734
-0.0012565413520768
0.29881459239398
-0.0013030771288862
0.29903564295408
-0.0013393670665478
0.2992661524232
-0.0013873102181886
0.29950162934179
-0.0014135202331753
-0.0014678940150197
0.29974821024301
0.2793950083457
-3.0193420444349e-05
0.27940644169051
-9.0817123664635e-05
0.27942556722818
-0.00015172296270904
0.27945242984162
-0.00021272440459886
0.27948709107554
-0.00027380908624928
0.27952963712835
-0.00033505959482218
0.27958015788323
-0.00039654131086805
0.27963873263545
-0.00045825715302344
0.27970542520984
-0.00052010950030037
0.27978029883765
-0.00058197725617808
0.27986341959525
-0.00064370221949587
0.27995487420407
-0.00070522262512142
0.28005475078255
-0.00076643488323206
0.28016315994642
-0.00082740484679005
0.28028018563261
-0.00088800517802514
0.28040594160954
-0.00094841091820089
0.28054047347215
-0.001008303927779
0.28068390203503
-0.0010680556963469
0.28083620659736
-0.0011269263413796
0.28099755262991
-0.0011857956523753
0.28116779187428
-0.0012430289335913
0.28134720721924
-0.001300750794583
0.2815353745501
-0.0013553570510182
0.28173287072039
-0.0014119102562112
0.28193869201829
-0.0014623626253602
0.28215414998136
-0.0015185350669661
0.28237700762684
-0.0015622246869006
0.28261030774745
-0.0016206103135948
0.28284909118146
-0.0016523036426685
-0.00171909220232
0.28310028939505
0.26371376102305
-3.3744959104341e-05
0.26372456151482
-0.00010161757902431
0.2637426495491
-0.000169810960669
0.26376808462639
-0.00023815944603358
0.26380094947803
-0.00030667390283017
0.26384135674337
-0.00037546682587157
0.26388942079551
-0.0004446053296565
0.2639452414774
-0.00051407780240211
0.26400890314127
-0.00058377113268103
0.26408049704834
-0.00065357113263171
0.2641601283303
-0.00072333347189195
0.26424793559674
-0.00079302986284378
0.2643440661708
-0.00086256542960632
0.26444869624561
-0.00093203489468845
0.26456197261949
-0.0010012815259338
0.26468407523235
-0.001070513505737
0.26481510721716
-0.0011393358880539
0.26495525772648
-0.0012082061816016
0.26510456002131
-0.0012762286127725
0.26526326064318
-0.001344496251087
0.26543125899142
-0.001411027259129
0.2656089412986
-0.0014784330791387
0.26579590592215
-0.0015423216522156
0.26599287115757
-0.0016088754691997
0.26619879338427
-0.0016682848297494
0.2664152086201
-0.0017349502802485
0.26663970797236
-0.0017867240166239
0.26687574406145
-0.0018566463802025
0.26711790289333
-0.0018944624527867
-0.0019751111961874
0.26737392191057
0.24891259131349
-3.7043552199806e-05
0.24892266059091
-0.00011168682427252
0.24893955634647
-0.00018670668416671
0.24896335148937
-0.00026195455728608
0.24899414991216
-0.00033747229466986
0.24903209087448
-0.00041340775788537
0.2490773134087
-0.00048982783440786
0.24912993817293
-0.00056670253786973
0.24919007072544
-0.0006439036573256
0.24925783162116
-0.00072133200123041
0.24933336702034
-0.00079886884487952
0.24941687002929
-0.00087653284632814
0.24950855040349
-0.00095424577926341
0.24960865361462
-0.0010321380819227
0.24971739363673
-0.0011100215249884
0.24983502136961
-0.0011881412161163
0.24996170314235
-0.0012660176390033
0.25009770259679
-0.0013442056146417
0.25024311445493
-0.001421640450088
0.25039827402378
-0.0014996557993384
0.25056313820547
-0.0015758914206273
0.25073820557569
-0.0016535004292322
0.25092310972694
-0.0017272257835862
0.25111871949707
-0.001804485219353
0.25132396858759
-0.0018735339004181
0.25154062342711
-0.0019516050997025
0.25176612902604
-0.0020122295955237
0.25200434334543
-0.0020948606796022
0.25224944281761
-0.0021395619056272
-0.0022356081502655
0.25250993979259
0.23494210194684
-4.0057911723112e-05
0.23495134229037
-0.00012092713888294
0.23496688775462
-0.00020225211958294
0.23498882358077
-0.00028389035491657
0.2350172740201
-0.00036592270604653
0.23505240434884
-0.00044853805917852
0.23509437791951
-0.00053180137830168
0.23514333606974
-0.00061566066187587
0.2351994055374
-0.00069997309949873
0.23526273622055
-0.00078466265947715
0.2353335158132
-0.00086964841341818
0.23541199268128
-0.00095500969087842
0.23549844044639
-0.0010406935216298
0.23559317555463
-0.0011268731679647
0.23569648185915
-0.0012133278080486
0.23580868407865
-0.001300343414623
0.23593001620603
-0.0013873497460381
0.23606082058449
-0.0014750099731106
0.23620126033335
-0.0015620801795094
0.23635176496607
-0.001650160412844
0.23651235919832
-0.0017364856340865
0.23668366007276
-0.0018248012849881
0.23686535167801
-0.001908917370461
0.23705845835516
-0.0019975918781162
0.23726191497561
-0.0020769905026968
0.2374777156497
-0.0021674057555284
0.23770320086689
-0.002237714794612
0.23794260784755
-0.0023342676423117
0.23818978261355
-0.0023867366543614
-0.0024997593114062
0.23845393379335
0.22175567054882
-4.2758646394844e-05
0.22176399251838
-0.00012924908285224
0.22177803919385
-0.00021629876951232
0.22179790770992
-0.00030375884568394
0.22182374149933
-0.00039175647061338
0.22185573013578
-0.00048052667115477
0.22189405954227
-0.00057013076088195
0.22193889017929
-0.00066049127538255
0.2219903691512
-0.000751452048507
0.22204867508864
-0.00084296857445833
0.22211403667721
-0.00093500998017866
0.22218675639548
-0.0010277293877807
0.22226717134713
-0.0011211084525828
0.22235566817068
-0.0012153699712337
0.22245260152718
-0.0013102611449031
0.22255837021006
-0.0014061120782206
0.22267327915719
-0.0015022586744666
0.22279775075467
-0.001599481552168
0.22293202310236
-0.0016963525092699
0.22307662172383
-0.0017947590165717
0.22323165038321
-0.0018915142761169
0.22339784602707
-0.0019909969115953
0.22357496086722
-0.0020860321936779
0.22376417404765
-0.0021868050415974
0.22396445094131
-0.0022772673796665
0.22417800126108
-0.0023809560585414
0.22440211933236
-0.0024618328493494
0.22464137347621
-0.002573521769818
0.22488939590143
-0.0026347590638932
-0.0027663297628382
0.22515596636984
0.20930929402252
-4.5120697301161e-05
0.20931662117195
-0.00013657620932863
0.20932904021806
-0.00022871779269363
0.20934665916069
-0.00032137776551693
0.20936963881831
-0.00041473610579719
0.20939819060056
-0.00050907843120298
0.20943252054465
-0.00060446068320421
0.20947280591439
-0.00070077662361317
0.20951921210267
-0.00079785821576327
0.20957194396091
-0.00089570041196245
0.20963126916555
-0.00099433516461366
0.2096975416804
-0.0010940018827378
0.20977115997835
-0.0011947267311788
0.20985257743132
-0.0012967874051711
0.20994221880875
-0.0013999025038384
0.2100405539795
-0.0015044472307534
0.21014796120697
-0.0016096658842206
0.21026494006888
-0.0017164603966037
0.21039181091284
-0.0018232233362236
0.21052919078193
-0.001932138868815
0.21067727750198
-0.0020396009797331
0.21083691966246
-0.0021506390557487
0.21100796298791
-0.002257075503144
0.21119172908935
-0.00237057112711
0.21138725139649
-0.0024727896711788
0.21159693177081
-0.0025906364172734
0.21181808751989
-0.0026829885831121
0.21205554912817
-0.0028109833630623
0.21230288464358
-0.002882094564944
-0.0030337234807548
0.21257027837703
0.1975614406735
-4.7124821495134e-05
0.19756771341237
-0.0001428489276396
0.19757840303123
-0.00023940739095737
0.19759362683371
-0.00033660154747377
0.19761356060273
-0.00043466985455153
0.1976384344199
-0.00053395222824184
0.19766847114969
-0.00063449739318323
0.19770386174353
-0.00073616719779401
0.1977447869115
-0.00083878336443527
0.19779147437021
-0.00094238785155631
0.19784422693083
-0.0010470877065239
0.19790344515059
-0.0011532200839788
0.19796958483337
-0.0012608663958742
0.19804316091528
-0.0013703634692074
0.19812466516221
-0.0014814067333451
0.19821463281068
-0.0015944148619827
0.19831351634286
-0.0017085493996082
0.19842188528252
-0.0018248293196557
0.19854015049261
-0.0019414885301137
0.19866900732029
-0.0020609956804511
0.19880877020264
-0.0021793638464273
0.19896037298024
-0.0023022418178104
0.19912379900718
-0.0024205015149051
0.19930047380594
-0.0025472459107712
0.19948955583191
-0.0026618716823785
0.19969360282602
-0.0027946833966896
0.19991002817956
-0.0028994139222853
0.20014384235741
-0.0030447975268531
0.20038873234463
-0.003126984538782
-0.0033000549296964
0.20065506380805
0.18647291110473
-4.8758538762212e-05
0.18647808961138
-0.00014802741560016
0.18648698020048
-0.00024829796130418
0.18649970750246
-0.00034932883068472
0.18651645932661
-0.00045142166011805
0.18653748067518
-0.00055497355828155
0.18656300729598
-0.00066002399568761
0.18659324016318
-0.00076640004674665
0.18662837148792
-0.00087391467120479
0.1866686476641
-0.00098266400984394
0.18671440128331
-0.0010928413081447
0.18676607365309
-0.001204892436272
0.18682417069701
-0.0013189634226402
0.18688926259393
-0.0014354553490909
0.18696190143872
-0.0015540455614611
0.18704268280374
-0.0016751962104629
0.18713212727882
-0.0017979938585218
0.18723087134498
-0.0019235733697962
0.18733941190057
-0.0020500290700621
0.18745852105048
-0.0021801048148762
0.18758863002654
-0.0023094728073897
0.18773075103212
-0.0024443628084352
0.18788502716809
-0.0025747776363112
0.18805295044888
-0.0027151691771292
0.18823388034071
-0.0028428015601601
0.18843044594007
-0.0029912489821364
0.18864027383534
-0.0031092418040111
0.1888684519566
-0.0032729756349351
0.18910896955434
-0.0033675021239914
-0.0035631986088156
0.18937211324701
0.1760067068331
-5.0016595908132e-05
0.17601077254991
-0.00015209311525895
0.17601782939098
-0.00025535478511315
0.17602800707884
-0.00035950650124041
0.17604150215513
-0.00046491671922647
0.17605857036385
-0.00057204174981564
0.17607945599896
-0.00068090961379127
0.17610436593264
-0.00079130996342513
0.17613349955209
-0.00090304827386484
0.17616711694355
-0.001016281384531
0.1762055741533
-0.0011312985013497
0.1762493460064
-0.0012486642728545
0.17629897999117
-0.0013685973911457
0.17635509339148
-0.0014915687331865
0.17641828912636
-0.0016172412804032
0.17648921691684
-0.0017461239850872
0.17656845605528
-0.0018772329814127
0.17665670694591
-0.0020118242449972
0.17675454060001
-0.0021478627090792
0.17686281024857
-0.0022883744485215
0.17698204535918
-0.0024287079034747
0.17711335284496
-0.0025756702798844
0.17725701371892
-0.0027184384963486
0.17741459800471
-0.0028727534492118
0.17758568783853
-0.0030138913806863
0.17777292137922
-0.003178482509754
0.17797427526318
-0.003310595675305
0.17819475342963
-0.0034934537891068
0.17842886738895
-0.0036016160716589
-0.0038208862088279
0.1786865550016
0.16612790634845
-5.0900949575689e-05
0.16613086213546
-0.00015504888630873
0.16613608582104
-0.00026057845462089
0.16614370982048
-0.00036713048454238
0.16615393597742
-0.00047514286014094
0.16616702640099
-0.00058513215737195
0.16618322941302
-0.00069711260997193
0.1662027534101
-0.00081083394466667
0.16622580038108
-0.00092609522920287
0.1662526385504
-0.001043119538225
0.16628364049679
-0.0011623004323075
0.16631930614553
-0.0012843299061506
0.1663602151497
-0.0014095063800754
0.16640702189483
-0.0015383754630697
0.16646037014828
-0.0016705895188186
0.16652095387131
-0.001806707693113
0.16658940182102
-0.0019456809163903
0.16666647000911
-0.002088892418439
0.16675279448339
-0.0022341871690616
0.16684930278443
-0.00238488273544
0.166956612556
-0.0025360176613489
0.16707592567663
-0.0026949833870787
0.16720764375171
-0.0028501565584606
0.16735343255758
-0.0030185422424261
0.16751307225241
-0.0031735310633455
0.16768921750712
-0.0033546277526282
0.16788025118633
-0.0035016293431304
0.16809095142996
-0.0037041540217841
0.16831663188093
-0.0038272965122607
-0.004070780655603
0.16856652633903
0.15680354822988
-5.1420475572648e-05
0.15680541717568
-0.00015691781708984
0.1568088420015
-0.0002640032653288
0.15681395529737
-0.00037224376530763
0.15682096078805
-0.00048214833589925
0.15683012255424
-0.00059429390873809
0.15684168847334
-0.00070867851448786
0.15685586410616
-0.00082500956301242
0.15687284945434
-0.00094308056315931
0.15689291508778
-0.0010631851575346
0.1569164428644
-0.0011858281950078
0.1569439487387
-0.0013118357665516
0.1569760344678
-0.0014415920954338
0.157013380427
-0.0015757214085181
0.15705666044124
-0.0017138695194678
0.15710660125234
-0.0018566484906212
0.1571638709449
-0.0020029505955903
0.15722926910107
-0.0021542905613367
0.15730348868101
-0.0023084067360518
0.15738751738496
-0.0024689114266783
0.1574820564364
-0.0026305567005242
0.15758838406617
-0.0028013110049564
0.1577070289478
-0.002968801428754
0.15783972409535
-0.0031512373790905
0.15798647882498
-0.0033202857826956
0.15814990207694
-0.0035180509947725
0.15832887906092
-0.00368060631785
0.1585278014289
-0.0039030763809725
0.15874304536766
-0.0040425404427114
-0.0043105382127065
0.15898280293392
0.14800252067704
-5.159020930171e-05
0.14800334458582
-0.00015774171136866
0.14800503526724
-0.00026569393226407
0.14800772364519
-0.00037493212896482
0.14801161201145
-0.00048603668824567
0.14801696211548
-0.00059964399916588
0.14802401719999
-0.00071573358584046
0.14803297588664
-0.00083396823683422
0.1480440318864
-0.00095413655052227
0.14805745227228
-0.0010766055312551
0.14807362096363
-0.0012019968745078
0.1480930605347
-0.0013312753258767
0.1481163847187
-0.0014649162678737
0.1481442880534
-0.0016036247316554
0.14817746339126
-0.0017470448459003
0.14821665753405
-0.0018958426219743
0.14826256744006
-0.0020488604903551
0.14831602222251
-0.0022077453326521
0.14837776249702
-0.0023701469997482
0.14844881865746
-0.0025399675765953
0.14852997175383
-0.0027117097869032
0.14862254701097
-0.0028938862525842
0.14872721839025
-0.0030734727992373
0.14884572292554
-0.0032697419062039
0.14897838054661
-0.0034529433963886
0.14912762238848
-0.0036672928299149
0.14929299241587
-0.0038459763392151
0.14947830005587
-0.0040883840154669
0.14968120391213
-0.0042454442938351
-0.0045378711195608
0.14990853682486
0.13969545738876
-5.1430324608792e-05
0.1396952944204
-0.0001575787280487
0.13969534242179
-0.0002657419188062
0.13969572879281
-0.00037531848564735
0.13969665167888
-0.00048695956073475
0.13969836647512
-0.00060135878253949
0.13970110798753
-0.00071847508621073
0.13970506418896
-0.00083792442688581
0.13971041886496
-0.0009594912158614
0.13971743002793
-0.0010836166840602
0.13972647696837
-0.0012110438052601
0.13973807918745
-0.0013428775355056
0.13975285271572
-0.0014796897869462
0.1397714938089
-0.0016222658156674
0.13979470403416
-0.0017702550621378
0.13982323655609
-0.001924375134877
0.13985780714778
-0.0020834310731973
0.1398992589319
-0.0022491971080518
0.1399483707483
-0.0024192588077825
0.14000619518439
-0.0025977920046903
0.14007359062877
-0.0027791052239
0.14015189278172
-0.0029721883988214
0.14024194323204
-0.0031635232437155
0.14034540745323
-0.0033732061224465
0.14046298075586
-0.0035705166950984
0.14059682692989
-0.0038011390009647
0.14074724005979
-0.0039963894670279
0.14091733279543
-0.0042584767496289
0.14110621491748
-0.0044343264146226
-0.004750599414986
0.14131894321477
0.13185463902612
-5.0964605440869e-05
0.13185355805061
-0.00015649773481713
0.13185207557917
-0.00026425942961799
0.13185031321079
-0.00037355610040837
0.1318484617974
-0.00048510813176808
0.13184676701602
-0.00059966398686275
0.13184545237468
-0.00071716043191796
0.13184469167574
-0.00083716371612777
0.13184465530086
-0.00095945483024796
0.13184558682992
-0.0010845482031708
0.13184785551515
-0.0012133124812437
0.13185196822562
-0.0013469902371093
0.1318585349698
-0.0014862565226108
0.13186824030287
-0.0016319711403129
0.13188178629269
-0.0017838010436984
0.1318999166246
-0.0019425054585597
0.13192335884102
-0.0021068732815805
0.13195295091522
-0.0022787891743798
0.13198950300111
-0.0024558108862268
0.13203406720952
-0.0026423562061336
0.13208757124166
-0.0028326092498395
0.13215134279865
-0.0030359599504926
0.1322263706611
-0.0032385511019616
0.1323142570523
-0.0034610925106478
0.13241598645523
-0.0036722460963904
0.13253351783988
-0.0039186703852737
0.13266779698353
-0.0041306686115201
0.13282131592206
-0.0044119956897557
0.13299480093993
-0.0046078114341557
-0.0049468269977939
0.13319102852167
0.12445390078959
-5.0219034625778e-05
0.12445197948099
-0.00015457640138682
0.12444909504601
-0.00026137496911662
0.12444536019564
-0.00036982122556655
0.12444095454954
-0.00048070246298707
0.12443611167144
-0.00059482108797628
0.12443104322646
-0.00071209196803436
0.12442590697552
-0.00083202744790415
0.12442085691957
-0.00095440475846177
0.12441611652606
-0.0010798077948956
0.12441203971221
-0.0012092356535049
0.12440911074562
-0.001344061257173
0.12440792721451
-0.0014850729785789
0.124409147943
-0.0016331918560622
0.12441347159284
-0.0017881246809938
0.12442161296418
-0.0019506468174626
0.12443431180736
-0.00211957211257
0.12445237263095
-0.0022968499860608
0.12447663981451
-0.0024800780584047
0.12450813159303
-0.0026738479739577
0.1245478356362
-0.0028723132832923
0.1245970717019
-0.0030851960076674
0.12465689876887
-0.0032983781618638
0.12472899950094
-0.0035331932372439
0.1248143621889
-0.0037576087806578
0.12491513316032
-0.0040194413547321
0.12503216925811
-0.0042477047089137
0.12516814754477
-0.0045479739769831
0.12532466451732
-0.0047643284072926
-0.0051255103219585
0.12550334784194
0.11746854584382
-4.9221067879665e-05
0.1174658647028
-0.00015189522234504
0.11746171666132
-0.00025722688804762
0.11745620229936
-0.00036430682497048
0.11744948498781
-0.0004739851148747
0.11744178237719
-0.00058711844313709
0.11743329370976
-0.00070360326866565
0.11742416026261
-0.00082289397078288
0.11741451957002
-0.00094476403756855
0.1174045725788
-0.0010698607766225
0.11739465253924
-0.001199315587858
0.1173852105245
-0.001334619216989
0.11737682498824
-0.0014766874173474
0.11737011503904
-0.0016264818821781
0.11736577492871
-0.0017837845462304
0.11736446915206
-0.0019493410166271
0.11736696038704
-0.002122063323717
0.11737397903571
-0.0023038686113787
0.11738643204146
-0.0024925310415236
0.11740523088731
-0.0026926467981908
0.11743147033926
-0.0028985527149356
0.11746637322478
-0.0031200988745479
0.11751108621917
-0.0033430911395036
0.11756740829379
-0.0035895152972592
0.11763612303365
-0.003826323508107
0.11772023085336
-0.0041035491643293
0.11781912247351
-0.0043465963209262
0.11793778461939
-0.004666636116057
0.11807398191384
-0.0049005256949867
-0.0052879606574948
0.1182364322584
0.1108752701944
-4.8006316157569e-05
0.1108719187977
-0.00014854376950402
0.11086665220047
-0.00025196023241497
0.11085955603872
-0.00035721060573749
0.11085077956339
-0.00046520858431025
0.11084052247953
-0.00057686130658528
0.11082896965142
-0.00069205039030943
0.11081624326205
-0.00081016753319504
0.11080246413214
-0.00093098486113374
0.11078781060817
-0.0010552072073275
0.11077258991008
-0.0011840948453975
0.11075721333316
-0.0013192425963065
0.11074223394392
-0.0014617079848702
0.11072822307346
-0.0016124709688003
0.11071586710445
-0.0017714285347177
0.11070576375587
-0.0019392376258772
0.11069870783853
-0.0021150073648064
0.11069531229934
-0.0023004730312998
0.11069659560167
-0.0024938143041098
0.11070324503155
-0.0026992961897118
0.11071661986914
-0.0029119275161513
0.11073755549944
-0.0031410344706889
0.11076765756705
-0.0033731931755978
0.1108082529593
-0.0036301106606162
0.11086051563714
-0.0038785861599297
0.11092786580837
-0.0041708993123334
0.11100842606121
-0.0044271565531837
0.11111189421557
-0.0047701042514706
0.11122381851369
-0.0050124499743937
-0.005435739097776
0.11137159697702
0.10465207894424
-4.6619226214691e-05
0.10464817420387
-0.00014463895390415
0.10464194838267
-0.00024573433446692
0.10463347186649
-0.00034873401399524
0.10462288682074
-0.000454623465249
0.10461037908191
-0.00056435349691053
0.10459611471133
-0.00067778595112125
0.10458020120273
-0.00079425395782357
0.10456275310188
-0.00091353669488407
0.10454392121367
-0.0010363752547528
0.10452397175075
-0.0011641453188293
0.10450326892741
-0.0012985397098841
0.10448233134358
-0.0014407703383764
0.10446168532524
-0.00159182488825
0.10444200355318
-0.0017517467008761
0.10442382293365
-0.0019210569451982
0.10440796168867
-0.0020991460594016
0.10439490196101
-0.0022874132443955
0.10438578412727
-0.0024846964126419
0.1043809819115
-0.0026944939184483
0.10438228004567
-0.0029132255974798
0.10438974279903
-0.0031484971745495
0.10440617054722
-0.003389620877649
0.10443099465545
-0.003654934726293
0.10446815244275
-0.0039157439080522
0.10451703428891
-0.0042197811229811
0.10458096616782
-0.0044910883996457
0.1046668194792
-0.0048559575325582
0.10476216821667
-0.0051077986815332
-0.0055666405969707
0.10489306975351
0.098778176228081
-4.5077105673748e-05
0.098773841012028
-0.00014030365023778
0.098766798891937
-0.00023869212607524
0.098757152123868
-0.00033908715891147
0.098745010133643
-0.00044248138999614
0.098730574563209
-0.00054991784340789
0.098713961222882
-0.00066117252940863
0.098695244980439
-0.00077553763517196
0.098674580531353
-0.00089287216641725
0.098652092130282
-0.001013886774732
0.098627997143153
-0.0011400502530854
0.098602607985195
-0.0012731504734573
0.098576388383704
-0.0014145506586899
0.098549815224197
-0.0015652516507595
0.098523524479617
-0.0017254558788051
0.098498015599857
-0.0018955479884891
0.098474091870816
-0.0020752222544567
0.098452161705948
-0.0022654830049972
0.098433395407342
-0.0024659300417959
0.098417950765872
-0.0026790492077132
0.098407881033652
-0.002903155800056
0.098402562946271
-0.0031431790264158
0.098406022839486
-0.0033930807149771
0.098415298201594
-0.0036642100370579
0.098438813961571
-0.0039392596212289
0.098467487470437
-0.0042484545894239
0.098518623509883
-0.0045422244006073
0.098571187907117
-0.0049085218931725
0.098655372262355
-0.0051919829982922
0.098801768650047
-0.0057130369377753
0.39462527981833
0.0046484170429918
0.39013578033289
0.0044894995113475
0.38580968246711
0.0043260978914765
0.38165135576849
0.0041583267244649
0.37766503161851
0.0039863241760521
0.37385480242833
0.0038102292166753
0.37022461215477
0.0036301903004034
0.36677824635394
0.0034463658281782
0.36351932443974
0.0032589219419151
0.3604512946348
0.0030680298331834
0.35757743046538
0.0028738641979959
0.35490082792852
0.0026766025659478
0.35242440200343
0.0024764259544708
0.35015088287055
0.002273519162722
0.34808281187072
0.0020680710299276
0.3462225377862
0.0018602741150272
0.34457221306601
0.0016503247508843
0.34313379025296
0.0014384228441293
0.34190901842144
0.0012247718627298
0.34089943970716
0.0010095787458369
0.34010638556118
0.00079305417763539
0.3395309717791
0.00057541381407236
0.33917408871517
0.00035688309601628
0.33903635862142
0.00013773012619709
0.33911828713004
-8.1928476075655e-05
0.33942030347182
-0.00030201630886299
0.33994230852373
-0.00052200501889318
0.34068409774107
-0.00074178918393626
0.34164525311535
-0.00096115534080338
0.34282513132494
-0.0011798781757569
0.34422286248221