/*--------------------------------*- C++ -*----------------------------------*\
| =========                 |                                                 |
| \\      /  F ield         | OpenFOAM: The Open Source CFD Toolbox           |
|  \\    /   O peration     | Version:  2112                                  |
|   \\  /    A nd           | Website:  www.openfoam.com                      |
|    \\/     M anipulation  |                                                 |
\*---------------------------------------------------------------------------*/
FoamFile
{
    version     2.0;
    format      ascii;
    arch        "LSB;label=32;scalar=64";
    class       volVectorField;
    location    "6.2";
    object      U;
}
// * * * * * * * * * * * * * * * * * * * * * * * * * * * * * * * * * * * * * //

dimensions      [0 1 -1 0 0 0 0];

internalField   nonuniform List<vector> 
22000
(
(1.0000007213081 -2.3974920374857e-05 0)
(1.0000251359571 -7.3274994585336e-05 0)
(1.0000720794062 -0.00012167397081817 0)
(1.000142226274 -0.00017089065386173 0)
(1.000236946275 -0.00022281100159397 0)
(1.0003579634215 -0.00027814772620184 0)
(1.0005068257932 -0.00033665539947642 0)
(1.0006847975333 -0.00039773938866135 0)
(1.0008929056372 -0.00046084931272695 0)
(1.001132018142 -0.00052570390418413 0)
(1.0014029338216 -0.00059234154477169 0)
(1.0017066103075 -0.00066119186173976 0)
(1.0020442554918 -0.00073282475607165 0)
(1.0024174520274 -0.00080785535056596 0)
(1.0028279163589 -0.00088640581785823 0)
(1.00327748317 -0.00096836534812679 0)
(1.0037675771018 -0.0010527629991709 0)
(1.0042994085845 -0.0011389118500025 0)
(1.0048732804108 -0.0012250586395097 0)
(1.0054893836317 -0.0013109404926461 0)
(1.006146704112 -0.0013942174983496 0)
(1.0068447276692 -0.0014761762403443 0)
(1.0075812957463 -0.0015530690121837 0)
(1.0083558391133 -0.0016293428577748 0)
(1.0091651092652 -0.0016973746504794 0)
(1.0100092496929 -0.0017682238916492 0)
(1.0108835667677 -0.0018247597216803 0)
(1.0117898369813 -0.0018927040806053 0)
(1.0127210237675 -0.0019329354574923 0)
(1.0136819573676 -0.0020043767017867 0)
(1.0000001774932 -7.0387387849336e-05 0)
(1.0000243639274 -0.00021527838754068 0)
(1.0000709925717 -0.00035747862261548 0)
(1.000140658515 -0.00050203490861295 0)
(1.0002348142518 -0.0006545701534084 0)
(1.0003552471919 -0.0008172268474663 0)
(1.0005035570589 -0.00098927878505659 0)
(1.0006810643177 -0.0011689467361519 0)
(1.0008888067422 -0.0013545770591276 0)
(1.0011276625959 -0.0015453185604416 0)
(1.0013984032277 -0.0017412923140753 0)
(1.0017020295265 -0.0019438126176927 0)
(1.0020397351491 -0.0021546453782087 0)
(1.0024132394476 -0.0023756967758442 0)
(1.0028242380072 -0.0026074112970384 0)
(1.0032748283591 -0.0028494996695145 0)
(1.0037663093279 -0.0030991203104759 0)
(1.004300333838 -0.003354206021991 0)
(1.0048768122561 -0.0036095835534719 0)
(1.0054967257988 -0.0038643786244811 0)
(1.0061581328507 -0.0041117405882827 0)
(1.0068620276343 -0.004355281325704 0)
(1.0076042717761 -0.0045841679450352 0)
(1.0083872671712 -0.0048111065887566 0)
(1.009203716774 -0.0050142471606702 0)
(1.0100596424514 -0.0052251739256554 0)
(1.01094229174 -0.0053950173898542 0)
(1.0118649383683 -0.0055970044167722 0)
(1.0128049467912 -0.0057200009920888 0)
(1.013789354647 -0.005931062426377 0)
(1.0000001854696 -0.00011442728580559 0)
(1.00002497358 -0.00035008212068325 0)
(1.000072622558 -0.00058110160969239 0)
(1.0001435610573 -0.00081578299816215 0)
(1.0002391459647 -0.001063461651791 0)
(1.0003611691726 -0.0013277274039648 0)
(1.000511271655 -0.0016074050201407 0)
(1.000690826809 -0.0018995547459135 0)
(1.0009008751094 -0.0022014250844978 0)
(1.001142317138 -0.0025115951254085 0)
(1.0014158810524 -0.0028302704686891 0)
(1.0017226198321 -0.0031596698042269 0)
(1.0020636638764 -0.0035027765856243 0)
(1.0024408953989 -0.0038628387266732 0)
(1.0028559034158 -0.0042406705433401 0)
(1.0033111373828 -0.0046359127725023 0)
(1.0038076264635 -0.005043931393946 0)
(1.0043476977681 -0.0054614534255018 0)
(1.0049306024333 -0.0058799380285991 0)
(1.0055586118603 -0.0062981230030758 0)
(1.006228294822 -0.0067045783618196 0)
(1.0069431526408 -0.0071055493898275 0)
(1.0076958389963 -0.0074828217396201 0)
(1.008493716706 -0.007857891611879 0)
(1.0093227864952 -0.0081939812658442 0)
(1.0101989784282 -0.008544225152552 0)
(1.0110958496102 -0.008826563004932 0)
(1.0120464486463 -0.0091637426195615 0)
(1.0130007678411 -0.009369760024577 0)
(1.0140254473752 -0.0097237209198604 0)
(1.0000001784443 -0.0001568831025175 0)
(1.0000255689056 -0.0004799009677047 0)
(1.0000742579117 -0.00079594757431302 0)
(1.0001465254377 -0.0011166144036399 0)
(1.0002436484211 -0.0014550077829884 0)
(1.0003674245466 -0.0018162189476219 0)
(1.000519523425 -0.0021986652247605 0)
(1.0007013730911 -0.0025982646923271 0)
(1.0009140155743 -0.0030111644652452 0)
(1.0011583888141 -0.0034353761414187 0)
(1.0014351655913 -0.0038711910503447 0)
(1.0017454814538 -0.0043217440001228 0)
(1.0020903848526 -0.0047912221281797 0)
(1.002471993175 -0.0052842361531344 0)
(1.0028917387854 -0.0058019783653909 0)
(1.0033525589603 -0.0063441459922926 0)
(1.0038550872656 -0.006904392317031 0)
(1.0044025886508 -0.0074785081441863 0)
(1.0049933768653 -0.0080546408619382 0)
(1.0056315253403 -0.0086315189517673 0)
(1.006311521107 -0.0091929883538971 0)
(1.0070403591692 -0.0097484675322203 0)
(1.0078062561356 -0.010271815300869 0)
(1.0086234393986 -0.010794251509498 0)
(1.0094687110752 -0.011262810229766 0)
(1.0103716032147 -0.01175397722124 0)
(1.0112870404133 -0.01214992318811 0)
(1.0122749898494 -0.012626444197651 0)
(1.0132485329404 -0.012917645589411 0)
(1.0143277500224 -0.01342143999497 0)
(1.000000167174 -0.00019786975800569 0)
(1.0000261786934 -0.00060514501199887 0)
(1.0000759185009 -0.0010026280851704 0)
(1.0001494943864 -0.0014052431065326 0)
(1.0002480994732 -0.0018299834566409 0)
(1.0003735491972 -0.0022835358974667 0)
(1.0005275483493 -0.0027639551869195 0)
(1.0007115833166 -0.0032660189075426 0)
(1.0009266799095 -0.0037847479007806 0)
(1.0011738062542 -0.0043175776895588 0)
(1.0014535481176 -0.0048648927364929 0)
(1.0017671333056 -0.0054307908258844 0)
(1.002115492156 -0.0060206980712663 0)
(1.0025010322685 -0.0066406741866751 0)
(1.0029249800393 -0.007292339949026 0)
(1.0033908921864 -0.0079756220034755 0)
(1.003898906083 -0.0086825356094099 0)
(1.0044534782111 -0.0094082341255535 0)
(1.0050517572609 -0.010137557216105 0)
(1.0057000838425 -0.010869654373238 0)
(1.0063903742312 -0.011583398346273 0)
(1.0071339687347 -0.012292044164676 0)
(1.0079136468685 -0.012960782017505 0)
(1.0087520748817 -0.013631755799672 0)
(1.0096148872847 -0.014234175353367 0)
(1.0105481324496 -0.014870208586552 0)
(1.011484337152 -0.015382963793293 0)
(1.0125157544342 -0.016005815175543 0)
(1.0135115353592 -0.016386652987371 0)
(1.0146551451702 -0.017050781233369 0)
(1.0000001514389 -0.00023740931161359 0)
(1.0000267652182 -0.000725885252605 0)
(1.0000774890779 -0.0012012059666837 0)
(1.0001522245796 -0.0016816889287096 0)
(1.0002520639162 -0.0021883612979852 0)
(1.0003788381826 -0.0027296156504625 0)
(1.0005342822614 -0.003303192845831 0)
(1.0007199375102 -0.0039027286266729 0)
(1.0009367957681 -0.0045220847363114 0)
(1.0011858516793 -0.0051581063148426 0)
(1.0014675782823 -0.0058112762315785 0)
(1.0017833073387 -0.0064867094399635 0)
(1.0021338182111 -0.007191113090103 0)
(1.0025218570028 -0.0079320969820057 0)
(1.0029483949518 -0.0087117651838538 0)
(1.0034177187761 -0.0095304670598725 0)
(1.0039293752248 -0.010378652639001 0)
(1.0044892267022 -0.011251169656298 0)
(1.005093066112 -0.012129539881545 0)
(1.0057498909549 -0.013013818419867 0)
(1.0064486662425 -0.013877613805162 0)
(1.0072057587509 -0.014738770903189 0)
(1.0079977780276 -0.015552977985817 0)
(1.0088569999196 -0.016374653323825 0)
(1.0097365339087 -0.017113379160431 0)
(1.0107009399382 -0.017899571721348 0)
(1.0116579522349 -0.018533719050488 0)
(1.0127354371846 -0.019311621298408 0)
(1.0137545912712 -0.019788290059463 0)
(1.014967873582 -0.020625292312187 0)
(1.0000001312804 -0.00027545575651053 0)
(1.0000272666741 -0.00084198749201725 0)
(1.00007878955 -0.0013914232092333 0)
(1.0001543636497 -0.0019455434066119 0)
(1.0002549574582 -0.0025295696406439 0)
(1.0003824087351 -0.0031537156391753 0)
(1.0005384744803 -0.0038154531123521 0)
(1.0007247487217 -0.0045072661815531 0)
(1.0009421732751 -0.005221815585651 0)
(1.0011917631857 -0.005955337270252 0)
(1.0014738497255 -0.0067084174707936 0)
(1.0017898726851 -0.0074872488483287 0)
(1.0021404236136 -0.008299868422887 0)
(1.0025286215353 -0.0091555508275858 0)
(1.0029551316543 -0.010056946896195 0)
(1.0034250578193 -0.011005043286611 0)
(1.0039372749339 -0.011988805911496 0)
(1.0044992236774 -0.013003137927703 0)
(1.0051051996502 -0.014026235439731 0)
(1.0057671571988 -0.015059578609853 0)
(1.0064708592239 -0.01607121223487 0)
(1.0072381777434 -0.017084362557337 0)
(1.0080391257293 -0.018044367172755 0)
(1.0089163017914 -0.019019297238474 0)
(1.0098096356491 -0.01989731306214 0)
(1.0108031608956 -0.020839603867872 0)
(1.0117789748312 -0.021600619801592 0)
(1.012901646633 -0.02254313928169 0)
(1.0139436869782 -0.023123201138299 0)
(1.0152274625052 -0.024146487282835 0)
(1.0000001057411 -0.00031189877554451 0)
(1.000027619485 -0.00095312222232175 0)
(1.0000796415337 -0.0015727150711673 0)
(1.000155569092 -0.0021959871159943 0)
(1.000256223525 -0.0028525132311673 0)
(1.0003834364943 -0.0035544405873553 0)
(1.0005389756332 -0.0042990134244175 0)
(1.0007244800495 -0.0050775521055711 0)
(1.0009408214153 -0.005881473994606 0)
(1.001189023292 -0.0067063875625343 0)
(1.0014692446565 -0.0075529892721406 0)
(1.0017830310424 -0.0084286115623074 0)
(1.0021307498843 -0.009342672311625 0)
(1.0025159150725 -0.010306229316353 0)
(1.0029388383488 -0.011322547531183 0)
(1.0034055019624 -0.012393476162385 0)
(1.003914046167 -0.013506586581137 0)
(1.0044736124007 -0.014657215256983 0)
(1.0050769176362 -0.01582023968689 0)
(1.005739067605 -0.01699909524459 0)
(1.0064425224191 -0.018155992393923 0)
(1.0072149039514 -0.019320312184034 0)
(1.0080195513904 -0.02042626410219 0)
(1.0089095749592 -0.021556856838899 0)
(1.0098118460913 -0.022577228133496 0)
(1.0108296942733 -0.023681560728461 0)
(1.0118204090187 -0.024575389823551 0)
(1.0129839350288 -0.025692167026141 0)
(1.0140468319063 -0.026384275061528 0)
(1.0153973850694 -0.02760718326874 0)
(1.0000000744827 -0.00034657619528818 0)
(1.0000277644183 -0.0010588041067706 0)
(1.0000798815611 -0.0017442815752864 0)
(1.000155528057 -0.0024319019700114 0)
(1.0002553545657 -0.0031557380731206 0)
(1.0003811708526 -0.0039299735013524 0)
(1.0005347405112 -0.0047516646452761 0)
(1.0007177343771 -0.0056109553782212 0)
(1.0009309341119 -0.0064979797099686 0)
(1.0011753548015 -0.0074076984224539 0)
(1.0014509563688 -0.0083409261154334 0)
(1.0017593772413 -0.0093061893597927 0)
(1.0021007301087 -0.010314338576683 0)
(1.0024789259489 -0.01137832495335 0)
(1.0028938865085 -0.012502101541983 0)
(1.0033525009667 -0.013688605983681 0)
(1.0038521383993 -0.014924118633903 0)
(1.0044037030501 -0.016204793465911 0)
(1.0049983214832 -0.017502222935482 0)
(1.005654319978 -0.01882231434404 0)
(1.0063509264245 -0.020121242107106 0)
(1.0071214895819 -0.021435231973483 0)
(1.007922975473 -0.022686758672169 0)
(1.0088186314021 -0.02397482066021 0)
(1.0097232153458 -0.025140322659471 0)
(1.0107579648645 -0.026412081727636 0)
(1.0117579331067 -0.027444789094574 0)
(1.0129546311315 -0.028744821691971 0)
(1.014034891868 -0.029558469690175 0)
(1.0154440692618 -0.030993315396251 0)
(1.0000000368816 -0.00037929374164579 0)
(1.0000276494511 -0.0011584548968607 0)
(1.0000793619227 -0.0019051923418157 0)
(1.0001539575807 -0.0026520175090654 0)
(1.0002518959593 -0.0034376210990305 0)
(1.0003749446046 -0.0042783108585011 0)
(1.0005248491198 -0.0051709919949517 0)
(1.0007032917039 -0.0061046189855698 0)
(1.0009109496907 -0.0070680081484919 0)
(1.0011488008723 -0.0080554492972558 0)
(1.0014165933791 -0.0090678868460933 0)
(1.0017160225685 -0.010115078696781 0)
(1.0020469397853 -0.011209365572232 0)
(1.0024136130852 -0.012365673883802 0)
(1.0028155745137 -0.013588741547191 0)
(1.0032605880861 -0.014882792472218 0)
(1.0037452665447 -0.016232957215584 0)
(1.0042822589317 -0.017636571308512 0)
(1.0048611710742 -0.019062018432826 0)
(1.0055034838288 -0.020518160355633 0)
(1.006185442889 -0.021955027593603 0)
(1.0069458125579 -0.023416239805917 0)
(1.0077358930493 -0.024812196376539 0)
(1.0086280945082 -0.02625855637157 0)
(1.0095268373671 -0.027571372870403 0)
(1.010568670473 -0.02901488502146 0)
(1.0115707077601 -0.030192339966448 0)
(1.0127897592174 -0.031683308547608 0)
(1.0138825271996 -0.032628551938829 0)
(1.0153380326252 -0.034285737597213 0)
(0.99999999340681 -0.0004098442333601 0)
(1.0000272288197 -0.0012514612196646 0)
(1.0000779555257 -0.0020544774919966 0)
(1.0001506178063 -0.0028550331799244 0)
(1.000245466256 -0.003696523948803 0)
(1.0003642038872 -0.0045974505889794 0)
(1.000508545823 -0.0055545993338707 0)
(1.0006801582453 -0.0065557248711621 0)
(1.0008796070573 -0.0075882980925384 0)
(1.0011077916249 -0.0086459135476814 0)
(1.0013642535536 -0.0097296601165815 0)
(1.001650680371 -0.010850542398029 0)
(1.0019666923021 -0.012022458350043 0)
(1.0023168131584 -0.01326234258081 0)
(1.0027002554937 -0.014575862460304 0)
(1.0031255193066 -0.015968646036896 0)
(1.0035885864211 -0.017424911726864 0)
(1.004103689348 -0.018943446564559 0)
(1.0046591161164 -0.02048959944929 0)
(1.0052792749047 -0.022075602992116 0)
(1.0059378465799 -0.023645324901845 0)
(1.0066784393572 -0.025250186365929 0)
(1.007447770287 -0.026788491961324 0)
(1.008325836242 -0.028392685399488 0)
(1.0092093443512 -0.029854200512552 0)
(1.0102463698581 -0.031472332713331 0)
(1.011241969927 -0.03279993121999 0)
(1.0124697850739 -0.03448762505991 0)
(1.0135689617658 -0.03557483288502 0)
(1.0150548112544 -0.037462086544028 0)
(0.99999994365733 -0.00043802434608883 0)
(1.0000264669009 -0.0013372226854166 0)
(1.0000755618894 -0.0021912043928249 0)
(1.0001453215842 -0.0030397217306686 0)
(1.0002357722685 -0.0039309239111116 0)
(1.0003485313638 -0.00488555290688 0)
(1.0004852664753 -0.0059003023469464 0)
(1.0006476050848 -0.0069617227511203 0)
(1.0008359856407 -0.0080559156265678 0)
(1.0010512009527 -0.0091757632983057 0)
(1.0012925744594 -0.010322501914507 0)
(1.001561744018 -0.011508398486309 0)
(1.0018580999423 -0.012748943704813 0)
(1.0021863433811 -0.014063115343598 0)
(1.0025454136458 -0.015457632032079 0)
(1.0029443970219 -0.016939626958873 0)
(1.0033788039849 -0.018492693162173 0)
(1.0038641808673 -0.020117226414507 0)
(1.0043878555148 -0.02177590088673 0)
(1.0049766968944 -0.023484504890447 0)
(1.0056025062502 -0.025180979455007 0)
(1.0063128312545 -0.026924717559579 0)
(1.0070512604842 -0.028602207121646 0)
(1.0079032759243 -0.030362299745975 0)
(1.0087612098652 -0.031972981121123 0)
(1.0097798448867 -0.033766768273857 0)
(1.0107594261915 -0.035249216440987 0)
(1.0119801274708 -0.037137116966401 0)
(1.0130784901856 -0.038376712303991 0)
(1.0145756746224 -0.04049844579066 0)
(0.99999988835938 -0.0004636486932148 0)
(1.0000253378257 -0.0014151938945389 0)
(1.0000721114251 -0.0023145433053253 0)
(1.0001379435304 -0.0032050163510067 0)
(1.000222621885 -0.0041395233097637 0)
(1.0003276601109 -0.0051410720582119 0)
(1.0004546590543 -0.0062062854966831 0)
(1.0006051869928 -0.0073205105048275 0)
(1.0007795358442 -0.0084684633666873 0)
(1.0009783701117 -0.0096423004189595 0)
(1.0012007769003 -0.01084340196588 0)
(1.0014483140052 -0.012085304864605 0)
(1.0017201263947 -0.013385100679801 0)
(1.002021032623 -0.014763847816192 0)
(1.0023497133761 -0.016229390767829 0)
(1.0027157139308 -0.017790502907716 0)
(1.0031142042715 -0.019430386734559 0)
(1.0035617634565 -0.021151217705665 0)
(1.0040451562155 -0.022913407826197 0)
(1.0045931142925 -0.024736304646442 0)
(1.0051764394776 -0.026552495459125 0)
(1.0058454081358 -0.028429044521183 0)
(1.0065422950422 -0.030241458608943 0)
(1.0073554853594 -0.03215399371799 0)
(1.0081768798821 -0.03391322943193 0)
(1.0091622864776 -0.035881655785725 0)
(1.0101154744924 -0.037522909838162 0)
(1.0113115017904 -0.039611845096241 0)
(1.0124007893037 -0.041013989472954 0)
(1.0138880724387 -0.043370916830256 0)
(0.99999982756413 -0.00048656156040272 0)
(1.0000238286008 -0.0014849186311966 0)
(1.0000675681636 -0.0024238205796747 0)
(1.0001284219153 -0.0033500801118156 0)
(1.0002059293995 -0.004321334115685 0)
(1.0003014821237 -0.0053628573711453 0)
(1.00041659484 -0.0064712193346072 0)
(1.0005527560189 -0.0076305697720255 0)
(1.0007100935198 -0.008824231962512 0)
(1.0008891217585 -0.010043626841071 0)
(1.0010886779315 -0.011290269080043 0)
(1.0013102064371 -0.012578963599812 0)
(1.0015525965712 -0.013928385899909 0)
(1.0018207175634 -0.015361706790711 0)
(1.0021130050024 -0.016887934137431 0)
(1.0024393341431 -0.018517634333397 0)
(1.0027946465131 -0.020233802792848 0)
(1.0031962830211 -0.02204059827373 0)
(1.0036308211327 -0.023896558200432 0)
(1.0041282244005 -0.025824534311561 0)
(1.00465925536 -0.027752521532303 0)
(1.0052755015637 -0.02975455333739 0)
(1.0059200276618 -0.03169663769722 0)
(1.0066811375569 -0.03375654763792 0)
(1.0074546722391 -0.035662626223359 0)
(1.0083912535923 -0.037802601991618 0)
(1.0093071257741 -0.039605727455698 0)
(1.0104598320269 -0.041893668640966 0)
(1.0115308452237 -0.04346810141539 0)
(1.0129857189159 -0.046057089002688 0)
(0.99999976242399 -0.00050664566635412 0)
(1.0000219368933 -0.0015460557041962 0)
(1.0000619298936 -0.0025185568706144 0)
(1.0001167621407 -0.0034743543647986 0)
(1.0001857172724 -0.0044757359292059 0)
(1.0002700484348 -0.0055502210129833 0)
(1.0003711660075 -0.0066943382412407 0)
(1.000490457539 -0.0078910531599714 0)
(1.0006278726867 -0.0091222964088105 0)
(1.0007837529033 -0.010378749144883 0)
(1.0009566773882 -0.011662045394744 0)
(1.00114793965 -0.012988243362958 0)
(1.001356169805 -0.014377569904367 0)
(1.0015862126382 -0.01585531332212 0)
(1.0018362776277 -0.01743168057679 0)
(1.0021164297451 -0.019119141986169 0)
(1.0024214961301 -0.020900693243738 0)
(1.0027692908781 -0.022782620707413 0)
(1.003146590151 -0.024722020152033 0)
(1.0035839090884 -0.026745101569202 0)
(1.004052992942 -0.028776174524525 0)
(1.0046051843729 -0.030895228392923 0)
(1.0051866179347 -0.032960812413191 0)
(1.0058822753267 -0.035161446107843 0)
(1.0065965573713 -0.037211631812894 0)
(1.0074684552581 -0.039518001156079 0)
(1.0083357254693 -0.04148508675999 0)
(1.0094260445377 -0.043967166176827 0)
(1.0104687770412 -0.045723012068036 0)
(1.0118683634194 -0.048537096282686 0)
(0.99999969334548 -0.00052382803812168 0)
(1.000019673836 -0.0015983960742641 0)
(1.0000552278271 -0.0025984929360033 0)
(1.0001030309892 -0.0035775890819762 0)
(1.0001621093985 -0.0046025083177302 0)
(1.0002335614451 -0.0057029720789791 0)
(1.0003186751439 -0.006875477553259 0)
(1.0004187154888 -0.0081018253278493 0)
(1.0005334421187 -0.0093625615143256 0)
(1.0006630018612 -0.010647625349071 0)
(1.0008057131461 -0.011958752737975 0)
(1.0009626800561 -0.013313222893368 0)
(1.0011322756773 -0.014732775875835 0)
(1.0013192347458 -0.016244786029064 0)
(1.0015215736627 -0.017860707285547 0)
(1.0017493747665 -0.0195949645853 0)
(1.001997505411 -0.021430803921997 0)
(1.0022838934832 -0.023376687039819 0)
(1.0025959731124 -0.025388796449128 0)
(1.0029640311631 -0.027496381247213 0)
(1.0033618949433 -0.029621203312977 0)
(1.0038390118851 -0.031847824834197 0)
(1.0043469318606 -0.034029910121294 0)
(1.0049639929811 -0.036363179649852 0)
(1.0056077776303 -0.038553780025303 0)
(1.0063993329098 -0.041019414899659 0)
(1.0072065339698 -0.043151577574901 0)
(1.0082156229456 -0.045820291077847 0)
(1.0092193715108 -0.047765876757079 0)
(1.0105412756552 -0.050794507884063 0)
(0.99999962171074 -0.00053808296777062 0)
(1.0000170595454 -0.0016418705024694 0)
(1.0000475239112 -0.0026635986195766 0)
(1.0000873578512 -0.0036598544308116 0)
(1.0001353274694 -0.0047018463725112 0)
(1.0001923618073 -0.0058214323910659 0)
(1.000259611038 -0.0070150834927353 0)
(1.0003381978158 -0.0082634627111268 0)
(1.0004276827364 -0.0095457531476547 0)
(1.0005279968271 -0.010851153399481 0)
(1.0006371981985 -0.012181482343849 0)
(1.0007561607851 -0.01355518648267 0)
(1.0008830120846 -0.014995473615047 0)
(1.0010222774736 -0.016531737048704 0)
(1.0011718380686 -0.018176735892984 0)
(1.0013415788503 -0.019946839843163 0)
(1.0015266133246 -0.021825849548511 0)
(1.0017445477107 -0.023824317569877 0)
(1.001984001282 -0.025898198615458 0)
(1.0022741719213 -0.028079199063374 0)
(1.0025921121887 -0.0302879792652 0)
(1.0029836846649 -0.032611890848702 0)
(1.0034081692931 -0.034902755148105 0)
(1.0039340315912 -0.037359329794641 0)
(1.0044963774088 -0.03968576015303 0)
(1.0051925264107 -0.042301753351355 0)
(1.0059281536755 -0.044599131060345 0)
(1.0068379024099 -0.047444626411302 0)
(1.007791387675 -0.049587391668778 0)
(1.0090144891597 -0.052816835786913 0)
(0.99999954845072 -0.00054943150882771 0)
(1.0000141245395 -0.0016765515863071 0)
(1.0000389062296 -0.0027140710649829 0)
(1.0000699195399 -0.0037215273013282 0)
(1.0001056723069 -0.004774334026972 0)
(1.0001469098686 -0.0059064036813856 0)
(1.0001946288141 -0.0071141836117661 0)
(1.0002497893092 -0.0083772283910559 0)
(1.0003117464786 -0.0096733871460412 0)
(1.0003801981598 -0.01099112058537 0)
(1.0004529482836 -0.012332315635776 0)
(1.0005305980408 -0.013716518474619 0)
(1.000611045994 -0.015168353897951 0)
(1.0006984994454 -0.016719135914187 0)
(1.0007907740421 -0.018382992437008 0)
(1.0008973266636 -0.02017816538054 0)
(1.0010137346148 -0.022089370110173 0)
(1.0011568333559 -0.024129021277725 0)
(1.0013169446023 -0.026253691816654 0)
(1.0015213289085 -0.028496716771536 0)
(1.0017513483709 -0.030779344916983 0)
(1.0020476734823 -0.033189662002699 0)
(1.0023794401098 -0.035580966651943 0)
(1.0028023221755 -0.038150497640447 0)
(1.0032727322829 -0.040607366289593 0)
(1.0038593069982 -0.04336329689029 0)
(1.0045119892821 -0.045825047487253 0)
(1.0053053796241 -0.048835414790876 0)
(1.0061967722191 -0.051181838999369 0)
(1.0073017808426 -0.054595577525941 0)
(0.99999947498427 -0.00055794031571804 0)
(1.0000109069425 -0.0017026428739888 0)
(1.0000294829488 -0.0027503248379396 0)
(1.0000509289596 -0.0037632872074793 0)
(1.0000735021933 -0.0048209374281791 0)
(1.0000977524423 -0.0059591469107239 0)
(1.0001245069057 -0.0071743468528392 0)
(1.0001545403269 -0.0084450170539143 0)
(1.0001869966335 -0.0097477092491907 0)
(1.0002213234877 -0.011070144224235 0)
(1.0002550845663 -0.012414263544176 0)
(1.0002885713029 -0.013800631782011 0)
(1.000319472128 -0.015255236943777 0)
(1.0003515692761 -0.016811190803852 0)
(1.0003826690474 -0.018484051562677 0)
(1.0004215862488 -0.020293823127817 0)
(1.0004645442586 -0.022226503268898 0)
(1.000527203458 -0.024296085468309 0)
(1.0006020338293 -0.026460611359616 0)
(1.0007135910394 -0.028754194722587 0)
(1.0008484932235 -0.031100310088128 0)
(1.0010408068948 -0.03358578255844 0)
(1.0012712989501 -0.036068646899821 0)
(1.0015804484413 -0.038740045542783 0)
(1.0019490063994 -0.041321167265033 0)
(1.0024129385655 -0.044205518665122 0)
(1.0029716174724 -0.046829834616845 0)
(1.0036331017437 -0.04999162526272 0)
(1.0044501528827 -0.052547172365644 0)
(1.0054199108486 -0.056126598549704 0)
(0.99999940248912 -0.00056371102223426 0)
(1.0000074461075 -0.0017204644631577 0)
(1.0000193737511 -0.0027729673463289 0)
(1.0000306322772 -0.0037860763801129 0)
(1.0000392300015 -0.0048429514482864 0)
(1.0000454990488 -0.0059813130802983 0)
(1.0000500903195 -0.0071975932462907 0)
(1.0000535818187 -0.0084692449390092 0)
(1.000054912778 -0.0097715798924572 0)
(1.000053256911 -0.011091566344179 0)
(1.0000459475718 -0.012431179744823 0)
(1.0000329260706 -0.013811890306384 0)
(1.0000116911481 -0.015260998212199 0)
(0.99998551135172 -0.016813268858901 0)
(0.99995221021735 -0.018485748444162 0)
(0.99991979548738 -0.020300088976555 0)
(0.99988523753808 -0.022243871198578 0)
(0.99986272421562 -0.024332471600812 0)
(0.9998471663991 -0.026526022957793 0)
(0.99985983686645 -0.028858873823464 0)
(0.99989326811687 -0.031257875116372 0)
(0.99997389932603 -0.033807199029135 0)
(1.0000953218736 -0.036372088756025 0)
(1.0002811561539 -0.039134008505559 0)
(1.0005385708142 -0.041832040062185 0)
(1.0008679738852 -0.044832880359828 0)
(1.0013218973767 -0.047616499741432 0)
(1.0018374857488 -0.050915660529048 0)
(1.0025678876929 -0.05368465671981 0)
(1.0033880298778 -0.057410519183752 0)
(0.99999933081771 -0.00056687163707348 0)
(1.0000037639003 -0.0017304015389042 0)
(1.0000086719031 -0.0027827207284333 0)
(1.0000092634701 -0.0037910132691632 0)
(1.0000032890148 -0.0048419263775218 0)
(0.999990814914 -0.0059748927150291 0)
(0.99997229534602 -0.0071863519406727 0)
(0.99994809480319 -0.0084527754281574 0)
(0.9999169900713 -0.0097483271677411 0)
(0.99987787960158 -0.011059231320195 0)
(0.99982790225444 -0.012387503964597 0)
(0.99976657951901 -0.013755356814121 0)
(0.99969123475538 -0.015191350766161 0)
(0.99960452016704 -0.016731704799614 0)
(0.99950429368701 -0.018395029176937 0)
(0.9993976317888 -0.020204497946511 0)
(0.99928227370632 -0.022149491325914 0)
(0.99917078052219 -0.024246730374279 0)
(0.99906055971061 -0.026458678914356 0)
(0.99896938518031 -0.02881995472888 0)
(0.99889579793218 -0.031260977274291 0)
(0.99885838117313 -0.033863261242711 0)
(0.9988636183608 -0.036499614268023 0)
(0.99891802865637 -0.039341345973699 0)
(0.99905551089922 -0.042146745096129 0)
(0.99923999346761 -0.045253167960653 0)
(0.99957852140394 -0.048189470147675 0)
(0.99993533636515 -0.051612581246915 0)
(1.0005663536054 -0.05459659282599 0)
(1.0012253266593 -0.058448815257366 0)
(0.9999992598305 -0.00056758015067985 0)
(0.99999988353211 -0.001732939003787 0)
(0.99999745192312 -0.002780403379017 0)
(0.99998700310506 -0.0037792499045138 0)
(0.99996603671927 -0.004819381937135 0)
(0.99993430016208 -0.0059418412575734 0)
(0.99989202582555 -0.0071430893292424 0)
(0.99983931285936 -0.0083986269700993 0)
(0.99977479761974 -0.0096815245149734 0)
(0.99969709273269 -0.010977238281504 0)
(0.99960326256641 -0.012287871551549 0)
(0.99949233923703 -0.0136361979059 0)
(0.99936153013578 -0.015052041673702 0)
(0.9992126691061 -0.016572791234085 0)
(0.99904372560402 -0.018218785634196 0)
(0.99886065029654 -0.020014477627586 0)
(0.99866201328005 -0.021951322535722 0)
(0.99845864471298 -0.024047299708244 0)
(0.99825030595998 -0.026267279942473 0)
(0.99805151320527 -0.028646537674371 0)
(0.99786605781535 -0.031118357080226 0)
(0.99770582255386 -0.03376324015079 0)
(0.99758813356218 -0.036458781076882 0)
(0.99750516778038 -0.039371044684811 0)
(0.99751380786912 -0.042269930353217 0)
(0.99754573953598 -0.045474699830532 0)
(0.99775812430411 -0.048548963327384 0)
(0.99794538530159 -0.052088321677297 0)
(0.99846377199761 -0.055277009579232 0)
(0.998949540632 -0.059236976706543 0)
(0.99999918705639 -0.00056604585033136 0)
(0.99999588343598 -0.0017288084207676 0)
(0.99998597692913 -0.0027672795071146 0)
(0.99996430731261 -0.0037524056947038 0)
(0.99992804979479 -0.0047771164987081 0)
(0.99987661643625 -0.0058840730056426 0)
(0.99981007908535 -0.0070698884969079 0)
(0.99972829578729 -0.0083091909738307 0)
(0.99962979849896 -0.0095740918882623 0)
(0.99951283365272 -0.010849189466586 0)
(0.99937447697901 -0.012136569656099 0)
(0.99921315964627 -0.013459250535805 0)
(0.999026113756 -0.014848337856125 0)
(0.99881404720286 -0.016342026288812 0)
(0.99857527623312 -0.01796273780109 0)
(0.9983142403205 -0.019735749003363 0)
(0.9980306635179 -0.021655281154563 0)
(0.9977333149142 -0.023739930240398 0)
(0.9974243402115 -0.02595776899543 0)
(0.9971153079646 -0.028344245930502 0)
(0.99681404568455 -0.030835596021584 0)
(0.99652801456214 -0.033512599427132 0)
(0.996281146596 -0.036253765775459 0)
(0.99605779037396 -0.039228875679817 0)
(0.99592786268206 -0.042201640193485 0)
(0.99580428342021 -0.045505783523853 0)
(0.99587779264163 -0.048686236372579 0)
(0.99589226779542 -0.052360810904191 0)
(0.99628536059851 -0.055704734533142 0)
(0.99658347268844 -0.059796510502742 0)
(0.99999907208983 -0.00056259610301964 0)
(0.99999174187517 -0.001719119178191 0)
(0.99997458289872 -0.002745393479493 0)
(0.99994205406952 -0.0037135064980864 0)
(0.99989060921244 -0.0047189549582812 0)
(0.99981921756925 -0.0058058793731836 0)
(0.99972790250287 -0.0069711811715763 0)
(0.99961636726421 -0.0081886309148248 0)
(0.99948319330234 -0.009429829195848 0)
(0.99932646206447 -0.010678834969272 0)
(0.99914338459105 -0.011937748890391 0)
(0.99893160231134 -0.013229500302492 0)
(0.99868833729143 -0.014586369415192 0)
(0.99841281867141 -0.01604687417689 0)
(0.99810390986912 -0.017635830823904 0)
(0.99776409963072 -0.019378645253931 0)
(0.99739479452102 -0.021273542314055 0)
(0.99700212248727 -0.023338285648932 0)
(0.99659116233554 -0.025546635018642 0)
(0.99617014811469 -0.027931393363281 0)
(0.99575074149396 -0.03043574584347 0)
(0.99533709960876 -0.033137135927078 0)
(0.99495674474095 -0.035917721608114 0)
(0.99459222531748 -0.038953460825557 0)
(0.99431450801421 -0.041987672211159 0)
(0.99403821475971 -0.045408596982492 0)
(0.99395241795399 -0.048653084000365 0)
(0.99380540232654 -0.052544862901437 0)
(0.99405626116353 -0.055914404712524 0)
(0.99416269411603 -0.060408399645472 0)
(0.99999887798084 -0.00055843013435172 0)
(0.9999869147367 -0.0017074135709588 0)
(0.99996260563037 -0.0027204397317769 0)
(0.99991975174864 -0.0036708007617806 0)
(0.9998536534145 -0.0046570146163814 0)
(0.99976259685479 -0.0057246569766468 0)
(0.99964672471658 -0.0068706469200897 0)
(0.99950546007955 -0.0080671793961358 0)
(0.99933704313767 -0.0092847841471248 0)
(0.9991397286095 -0.010506833857365 0)
(0.99891124647178 -0.011735980888959 0)
(0.9986487037642 -0.012995906156258 0)
(0.99834919663915 -0.014321158710129 0)
(0.99801052524067 -0.015751253640034 0)
(0.9976318059278 -0.017314162545909 0)
(0.99721351748388 -0.019034799462054 0)
(0.99675847967225 -0.020916434732607 0)