/*--------------------------------*- C++ -*----------------------------------*\
| =========                 |                                                 |
| \\      /  F ield         | OpenFOAM: The Open Source CFD Toolbox           |
|  \\    /   O peration     | Version:  2112                                  |
|   \\  /    A nd           | Website:  www.openfoam.com                      |
|    \\/     M anipulation  |                                                 |
\*---------------------------------------------------------------------------*/
FoamFile
{
    version     2.0;
    format      ascii;
    arch        "LSB;label=32;scalar=64";
    class       volScalarField;
    location    "19.2";
    object      p;
}
// * * * * * * * * * * * * * * * * * * * * * * * * * * * * * * * * * * * * * //

dimensions      [0 2 -2 0 0 0 0];

internalField   nonuniform List<scalar> 
22000
(
0.010226803992667
0.010204731278246
0.010159084559216
0.010088756510536
0.0099932185064008
0.0098725352175749
0.0097270410882426
0.0095570857273614
0.0093629513628785
0.009144879062641
0.0089031120678909
0.008637926051617
0.0083496374354011
0.008038607731489
0.0077052319617982
0.007349943799638
0.0069731994606825
0.0065755009158387
0.0061573646416288
0.0057193723408301
0.0052620974092881
0.0047862154520636
0.0042923387015751
0.0037812644893545
0.0032536033267135
0.0027103352321455
0.0021519742354601
0.001579815191011
0.00099405450569621
0.00039654584799026
0.010641246665784
0.010617846627543
0.010570438760302
0.010498032268031
0.010400061172468
0.01027651559304
0.010127675735693
0.0099538649504255
0.0097553553717933
0.0095323831598079
0.0092851849158146
0.0090140277101018
0.0087192168156113
0.0084011039262004
0.0080600729012392
0.0076965508076735
0.0073109839373567
0.0069038727963862
0.0064757235403457
0.0060271240723145
0.00555863319028
0.0050709461141187
0.004564648746487
0.0040405833035833
0.0034993016723486
0.0029418766836647
0.0023686796304004
0.0017811799215151
0.001179218623154
0.00056489877627753
0.011403097361355
0.011378625237021
0.011329146353021
0.011253725778203
0.011151837339427
0.011023473998646
0.010868895562755
0.01068840004432
0.01048223734698
0.010250625951512
0.009993785809691
0.0097119681311078
0.0094054598912815
0.0090745964798024
0.008719742292889
0.0083413113831573
0.0079397307259162
0.0075154954726031
0.0070690911776013
0.0066011144186579
0.0061120970290659
0.0056027694392458
0.0050736709600796
0.0045257311942905
0.0039594006051272
0.0033759486924642
0.0027755024024287
0.002159939454668
0.0015284716475292
0.00088384129170949
0.012466343090398
0.012440646334555
0.012388697621026
0.012309532599158
0.012202620275956
0.012067955849159
0.01190579241095
0.011716409573527
0.011500030745773
0.011256846305838
0.010987047407942
0.0106908581248
0.010368535496843
0.010020387667883
0.0096467467017703
0.0092480026051371
0.0088245487121955
0.0083768658380506
0.0079054034041434
0.0074107631511555
0.0068934315758373
0.0063541814446849
0.0057934785714066
0.0052123685328735
0.0046111487445989
0.0039913550069275
0.0033527472349697
0.0026977501678062
0.0020246308564695
0.0013369757832464
0.013791660378343
0.013764555877558
0.013709757602173
0.013626254035107
0.013513492315165
0.013371458702093
0.01320039275859
0.01300054886259
0.012772114029038
0.012515237657934
0.01223006684077
0.011916782435996
0.011575594120587
0.011206765619228
0.010810577554362
0.010387378294492
0.0099375066301292
0.0094614126743031
0.0089594868738899
0.0084323239679653
0.0078803387450001
0.0073043434044268
0.006704694802834
0.0060825709495692
0.0054380577033779
0.0047730149313591
0.0040867173682028
0.0033822801847322
0.0026567603678344
0.0019148469532743
0.015344673429725
0.015316054067199
0.015258186536735
0.015170007261249
0.01505093501526
0.014900937190873
0.014720227132357
0.014509019695408
0.014267449762967
0.013995608694071
0.013693580536348
0.013361482538627
0.012999454463362
0.012607692487335
0.012186400344628
0.011735860218643
0.01125632838007
0.010748199938404
0.010211775752419
0.0096476224288131
0.0090560486371
0.0084378933334375
0.0077933625009925
0.0071237728816542
0.0064289365435578
0.0057110862593022
0.0049688973942043
0.0042063063049026
0.0034189004879347
0.0026126887347251
0.017094407693237
0.017064260062022
0.017003291570607
0.016910383686935
0.016784921397254
0.016626842813347
0.016436320392117
0.016213512233132
0.015958482082385
0.015671242796923
0.015351792812913
0.015000161277334
0.014616390830117
0.014200581515439
0.013752828767674
0.01327331723003
0.012762185587869
0.012219741494807
0.011646157559042
0.011041941499408
0.010407252900933
0.0097429336132182
0.0090489877696334
0.0083268644520841
0.0075760328073709
0.0067991300562475
0.0059941113731923
0.0051658392158718
0.0043081662513039
0.0034285881603126
0.019012100049204
0.018980503443241
0.018916589310974
0.018819182712472
0.01868762912764
0.018521825698971
0.018321887875201
0.018087898320333
0.017819828941103
0.017517591321366
0.017181072760114
0.016810186158138
0.016404845663055
0.015965021682561
0.015490664495596
0.014981823375227
0.014438477455606
0.013860806218716
0.013248807024905
0.012602887729734
0.011923006245569
0.011209970922488
0.010463523439142
0.0096852226854804
0.0088741151717494
0.0080332546687484
0.0071597488957204
0.0062594642330806
0.0053242526663341
0.004363215274258
0.021070458350626
0.021037581160767
0.020971057174495
0.020869654942265
0.020732674298083
0.020559958534439
0.02035154918208
0.020107434415732
0.019827472995577
0.019511451081325
0.019159117271902
0.018770237444941
0.018344562833762
0.01788189685717
0.017382003349215
0.016844752773481
0.016269916643572
0.015657497856281
0.015007263699948
0.014319470921337
0.013593813789398
0.012831017357948
0.012030489104815
0.011193858653209
0.010319661008671
0.0094113559769565
0.0084650696512428
0.0074877198682067
0.006468889872109
0.0054193422845499
0.023243278151994
0.023209371617225
0.023140742584673
0.023036102750612
0.022894699516315
0.02271630955609
0.022500884372549
0.022248299335583
0.021958278952845
0.021630459430482
0.021264422431033
0.020859754977529
0.020416009564822
0.019932783025658
0.019409608616171
0.018846130424682
0.018241859632376
0.017596567658674
0.016909730233347
0.016181392349599
0.015410913866888
0.014598873660927
0.013744263657666
0.012848726603601
0.011910186074925
0.010932473487146
0.0099105925311507
0.008852522915005
0.0077453086944199
0.0066013552385863
0.025505318979979
0.025470706238168
0.025400626680523
0.025293733104384
0.025149213396109
0.024966766741537
0.024746240788095
0.024487381132819
0.024189757826947
0.02385283363483
0.023475996270708
0.023058622929694
0.02260003198151
0.022099573702655
0.02155650582711
0.020970196457104
0.020339841204575
0.019664920571593
0.018944552511279
0.0181785016184
0.017365715535012
0.016506551530297
0.015599494814681
0.014646125714375
0.013643647522487
0.012596200768276
0.011497518469483
0.010356611242065
0.0091577099228954
0.007914755842486
0.027832364109108
0.027797426003505
0.027726669569607
0.027618688480095
0.027472608167879
0.02728804244844
0.027064722254632
0.026802247333567
0.026500015117204
0.026157294379616
0.025773255046618
0.025347036368121
0.024877689791238
0.024364280943831
0.023805748657057
0.023201135827055
0.022549267325964
0.021849271248289
0.021099839369263
0.020300381543701
0.019449350448975
0.01854679552633
0.017590597287307
0.01658217944385
0.015517906858691
0.014402139056745
0.01322718487634
0.012003007362497
0.010710749439173
0.0093656829051318
0.030201387245291
0.030166550097148
0.030095975400021
0.029988207255939
0.029842310948894
0.029657809048106
0.029434305202667
0.02917124049367
0.02886782543096
0.028523118011319
0.028136050750859
0.027705501266503
0.027230225896396
0.026708971822989
0.026140319845352
0.025522941575243
0.024855238944981
0.024135927036566
0.023363204072083
0.022536047991123
0.02165233218864
0.020711703560874
0.019711334900615
0.018652382967269
0.017530250792882
0.016349396481292
0.01510054760237
0.013794491862581
0.012409010639509
0.01096038985706
0.03259073402129
0.032556452023811
0.032486975555783
0.032380812744515
0.032236974271962
0.032054887924241
0.03183402222503
0.031573651023351
0.031272789438701
0.030930274771203
0.030544788818888
0.03011492938571
0.029639135681026
0.029115809014614
0.028543139770401
0.02791938815115
0.027242487099656
0.026510682150686
0.025721615191408
0.024873755706407
0.023964315725581
0.022992439838595
0.021954490155988
0.020851231470967
0.019676978606353
0.018436139919614
0.017117705245521
0.015733103914272
0.014256490634345
0.012704730181944
0.034980343608011
0.034947083628611
0.034879649346128
0.034776529142828
0.03463668701938
0.034459455665978
0.034244164917526
0.033989917836569
0.033695531333738
0.033359618240629
0.032980604052154
0.032556797541145
0.032086307232459
0.031567168931511
0.030997159068238
0.030374094723005
0.029695403028625
0.028958810699863
0.028161349062075
0.027300906630291
0.026373959034389
0.025379047037055
0.024311623751535
0.023171926722253
0.021953061692731
0.020659211656414
0.019277481391976
0.01781969852875
0.016256137506353
0.014603619356544
0.037351954448748
0.037320181075492
0.03725572950879
0.037157086643284
0.037023180424752
0.036853251327233
0.036646491182202
0.036401834189141
0.0361179026783
0.035793088410879
0.035425562658204
0.035013344091665
0.034554207274147
0.034045813930222
0.033485513689621
0.032870659090846
0.032198146643095
0.031465144980793
0.030668033331478
0.029804053997754
0.028868883665953
0.027860358603023
0.026772936562468
0.025606181110625
0.024351881838902
0.023013792549702
0.021577028506824
0.020053523242529
0.018409644968686
0.01666057665168
0.039689265839058
0.039659426581365
0.039598865789701
0.03950608907782
0.039380000612731
0.039219754458288
0.039024409439513
0.038792738168707
0.038523178387416
0.038213911430182
0.037862864648149
0.037467774671723
0.037026088736081
0.036535096728705
0.035991722121041
0.035392843970277
0.034734817300623
0.034014225592797
0.033226771014593
0.032368994260487
0.031435730224678
0.030424012528806
0.029327240528565
0.028144140866495
0.026865107863268
0.025493195453392
0.024011441599336
0.022431324609168
0.020715959710268
0.018878373228971
0.041978043945285
0.041950556802499
0.041894736656429
0.04180912972014
0.041692630760647
0.041544315789247
0.041363119390944
0.041147664985493
0.040896221617295
0.040606777372493
0.04027703340927
0.039904461238498
0.039486197916245
0.039019175353209
0.038499904114313
0.037924795089206
0.037289667388956
0.036590506217927
0.035822330393151
0.034980935954929
0.034060297501813
0.033056553322281
0.031962019964711
0.030774408947591
0.029482718022918
0.028088975599545
0.02657426180486
0.024949282929615
0.023172055059231
0.021254991029346
0.04420616777979
0.044181411209882
0.044131102827678
0.044053852344298
0.043948560215027
0.043814235643508
0.043649701846655
0.043453449790678
0.043223600949775
0.042957973599597
0.042654067298804
0.042309113063055
0.041919963779415
0.041483218259202
0.040994999966128
0.040451271611041
0.03984733736313
0.039178590710042
0.038439377504432
0.03762472695516
0.036727751875433
0.035743619900956
0.034663567588069
0.033484108765733
0.032192920755214
0.030790533603105
0.029256394236877
0.027599114049846
0.025774073755193
0.023787588525921
0.046363611085625
0.046341921679484
0.046297806846315
0.046229960364323
0.04613730440374
0.046018796392778
0.045873165512382
0.04569879054406
0.045493669733722
0.045255479516201
0.044981549483495
0.044668903368498
0.044314144816478
0.043913573974652
0.043462963333495
0.042957861783055
0.042393092013309
0.041763484427769
0.041062735092095
0.040285121546003
0.039422892482029
0.038470229995617
0.037417244671667
0.036259192715082
0.034982354794332
0.033585666640708
0.03204681165191
0.030371871113768
0.028513199997889
0.026470049318914
0.048442356582518
0.048424034239727
0.048386711487562
0.048329174625756
0.048250382343965
0.048149260680155
0.048024466307003
0.047874290242149
0.047696635331831
0.047489065293518
0.047248774688734
0.046972619103202
0.04665699779508
0.04629795625667
0.045890965257901
0.045431206008151
0.044913069533456
0.044330867659784
0.04367768788315
0.042947100881493
0.042130504390348
0.041221146048027
0.040207928660585
0.039084921067067
0.037836694172149
0.036460874721221
0.034932834941617
0.033257008940876
0.031380979625769
0.029296223744873
0.050436258590018
0.050421551919629
0.05039153590286
0.050345081061607
0.05028119381206
0.050198788935516
0.050096464139525
0.049972447120343
0.049824581369663
0.049650352667178
0.049446858639613
0.049210825766099
0.04893849931224
0.04862571556455
0.04826770570687
0.047859330179285
0.047394625552763
0.046867427632361
0.046270307978965
0.045596157980376
0.044835623960811
0.043981045140002
0.043020171215859
0.041945973252566
0.040740955176957
0.039401816445149
0.037899956993454
0.036241146097566
0.034364103736475
0.03225988706982
0.05234096133564
0.052329969202818
0.052307566323992
0.05227273920059
0.052224570131201
0.052161971521476
0.052083470530444
0.051987229183073
0.051871050811189
0.051732386418849
0.051568288449673
0.051375395388383
0.051149854793361
0.050887337961155
0.050582905989987
0.050231125503304
0.049825772433043
0.049360200850764
0.048826629238705
0.048217185616976
0.047522071143421
0.046732452774957
0.045835523999543
0.044822621639193
0.04367517168332
0.042387905426878
0.040927806101778
0.039300906380352
0.037432158570565
0.035331139410591
0.054154030422257
0.054146608006865
0.054131653201379
0.054108455056224
0.054076248936395
0.054033955046805
0.053980082325962
0.053912733346806
0.053829600886965
0.053728073241269
0.053605209239511
0.053457602726548
0.053281361209149
0.053072034891747
0.052824586628245
0.052533318789763
0.052191855245156
0.051793019927887
0.05132886371801
0.050790483886177
0.05016812003412
0.049450941448608
0.048627029600154
0.047683757164983
0.046605899323516
0.045379779959376
0.043979365425393
0.042390089784744
0.040541247278787
0.038406379905174
0.055875433917576
0.055871556058519
0.055863504677317
0.055851550611076
0.05583496536763
0.055812430750176
0.055782741264106
0.055744241117889
0.05569459798006
0.055630997490761
0.055550453666708
0.055449544415539
0.055324397195226
0.055170496961913
0.054982750185867
0.054755277909572
0.054481682565626
0.054154388972344
0.05376547492964
0.053305002587
0.052763521892592
0.052127655374412
0.051387283682426
0.050523576826129
0.049528589053272
0.048372879920195
0.04705554365836
0.045520029820304
0.043746239522759
0.041498448343475
-0.00017551269678668
-0.0007195760593434
-0.0012719807348682
-0.0018315913028335
-0.0023973806792687
-0.002968497575952
-0.0035441953766862
-0.004123751277294
-0.0047064263186184
-0.0052914539172026
-0.0058780403022617
-0.0064653748199236
-0.007052643373918
-0.0076390362537581
-0.0082237499479266
-0.0088059875478646
-0.0093849590549712
-0.0099598828466584
-0.010529987854374
-0.011094515431099
-0.011652719926549
-0.012203867155899
-0.01274722812037
-0.013282068547325
-0.013807643216954
-0.014323423764476
-0.014828993308312
-0.015323777917772
-0.015807164104847
-0.016278577437504
-0.016737505252375
-0.017183489803056
-0.017616116711287
-0.018035003561994
-0.018439800268503
-0.018830184802805
-0.019205872709111
-0.019566605663872
-0.019912169585031
-0.020242366070961
-0.020557054474899
-0.020856086373915
-0.021139403524255
-0.021406888361956
-0.021658590609512
-0.021894385816673
-0.022114499903016
-0.022318734071952
-0.022507700486997
-0.022681078053473
-2.0176032018314e-05
-0.00057351951726327
-0.0011363335936128
-0.001706525231336
-0.0022826542971733
-0.0028639281304505
-0.0034498296653123
-0.0040398318662296
-0.0046333014837828
-0.0052295037732705
-0.0058276361661972
-0.0064268694266858
-0.0070263770232222
-0.0076253414097424
-0.0082229468453398
-0.0088183737875137
-0.0094107994929611
-0.0099994014992801
-0.010583361533144
-0.011161869400034
-0.011734128544393
-0.012299364353019
-0.012856839862695
-0.013405879117433
-0.013945888449935
-0.014476077144221
-0.014995573460221
-0.015503736538477
-0.016000024284611
-0.016483917664324
-0.016954908842135
-0.017412508331365
-0.017856259575068
-0.018285740527858
-0.018700573892531
-0.01910041560418
-0.019484971751509
-0.019853971579614
-0.0202072074916
-0.020544473222064
-0.020865655592188
-0.021170593998309
-0.021459289674111
-0.021731585970291
-0.021987644530108
-0.022227218102212
-0.022450721066266
-0.022657566340268
-0.022848531658201
-0.023021827063574
0.00027234120281462
-0.00030487263861025
-0.00089422124335974
-0.001491378031779
-0.0020937906930984
-0.0027006123162657
-0.0033116852246779
-0.0039267937235148
-0.0045454377040458
-0.0051668761207568
-0.0057902337372506
-0.0064146063605314
-0.0070391210418643
-0.0076629364711068
-0.0082852172741492
-0.0089051182133494
-0.0095217846807647
-0.010134359784533
-0.010741991345259
-0.011343837392174
-0.011939070794486
-0.012526881865892
-0.013106476519889
-0.013677067169754
-0.014237856766183
-0.014788110662344
-0.015327164433914
-0.015854368686579
-0.016369113621435
-0.016870826946761
-0.017358971724425
-0.017833043366507
-0.018292581281924
-0.018737162892009
-0.019166420364812
-0.019580017453249
-0.019977683571199
-0.0203591603331
-0.020724280761517
-0.021072847296628
-0.021404813204308
-0.021720005905974
-0.022018540005128
-0.022300187980889
-0.022565316881711
-0.022813453349474
-0.02304538027602
-0.023259822245815
-0.02345798425679
-0.02363545832098
0.00068639431436169
7.1764591708981e-05
-0.00055867988275044
-0.001197008014061
-0.0018389904906388
-0.0024837826854453
-0.0031318385665807
-0.0037834406110519
-0.0044382921062942
-0.0050956442848185
-0.0057545270043103
-0.0064139490954859
-0.0070729990947412
-0.0077308333233509
-0.0083866207703568
-0.0090395111189495
-0.0096886349895472
-0.010333115377356
-0.010972077267069
-0.011604653536967
-0.012229989318803
-0.012847245154955
-0.013455600695415
-0.014054260497552
-0.014642465476165
-0.015219485187199
-0.015784612906586
-0.016337182884885
-0.016876568923244
-0.017402182536166
-0.017913480937286
-0.018409961618547
-0.018891175256063
-0.019356709168833
-0.019806214698047
-0.020239366958781
-0.020655925823491
-0.021055643147473
-0.02143840106414
-0.021804000960404
-0.022152478279654
-0.022483624436433
-0.02279770117074
-0.023094354997883
-0.023374231373714
-0.023636497113706
-0.023882438385114
-0.024109698201435
-0.024319981143345
-0.024504724031129
0.0012142606136496
0.00055034464631977
-0.00013421000186992
-0.00082644122759022
-0.0015198893132128
-0.002213813727045
-0.0029095670902567
-0.0036081232289851
-0.0043094460956754
-0.0050127617391175
-0.00571697095658
-0.0064209756849966
-0.0071238269217282
-0.0078246908070976
-0.0085227528250161
-0.0092171655163285
-0.0099070494430974
-0.010591511607328
-0.011269659725629
-0.011940610049816
-0.012603493081987
-0.013257457782616
-0.013901675263829
-0.014535341274948
-0.015157678949823
-0.015767942081401
-0.016365418000074
-0.016949430912111
-0.017519349418291
-0.018074584116561
-0.018614597672629
-0.019138893932178
-0.019647037817747
-0.020138627888988
-0.020613339997636
-0.021070863173697
-0.021510996749095
-0.021933503525009
-0.022338328913888
-0.022725269111229
-0.023094465898862
-0.023445658159697
-0.023779298476081
-0.02409486062491
-0.024393350982359
-0.024673454547358
-0.024937114121645
-0.025180552814613
-0.025406165796325
-0.025599992888889
0.0018523376723879
0.0011280902977638
0.00037699324730103
-0.00038134728393945
-0.0011376356898839
-0.0018913602745815
-0.0026450865002137
-0.0034006757130034
-0.0041583934654261
-0.0049174035577259
-0.0056764311121043
-0.0064342451340453
-0.0071898559244954
-0.0079424479865467
-0.0086912315890586
-0.0094353656225734
-0.010173961459794
-0.010906110981823
-0.011630906550135
-0.0123474506748
-0.013054861944594
-0.01375227850343
-0.014438860767619
-0.015113792835757
-0.015776286289675
-0.016425589591032
-0.017060989219691
-0.017681809954369
-0.01828742483158
-0.018877250331238
-0.019450761260695
-0.020007473667009
-0.020546974729755
-0.021068881277613
-0.021572905095177
-0.022058756473444
-0.022526289354258
-0.022975283609016
-0.023405769240739
-0.023817538276418
-0.0242108709126
-0.024585442419207
-0.024941949699399
-0.025279654721783
-0.025600020936924
-0.025901144747023
-0.026185798366353
-0.026448471064826
-0.026692446515889
-0.026897121465004
0.0025995795557065
0.0018043860739507
0.00097452780726842
0.00013811685442192
-0.00069205977628714
-0.0015158957751564
-0.0023375372263135
-0.0031599453072939
-0.00398371661669
-0.0048078995099403
-0.0056309877028694
-0.0064515900331814
-0.0072686755726105
-0.0080814568976231
-0.0088891760916209
-0.0096909999324971
-0.010486028982249
-0.011273338303459
-0.012052004417783
-0.0128211162727
-0.013579781016221
-0.014327126883664
-0.01506230576777
-0.015784494588333
-0.016492900467591
-0.017186770159889
-0.017865391052656
-0.018528091438532
-0.019174253141342
-0.019803303057102
-0.020414734072748
-0.021008079741451
-0.021582957704834
-0.022139008906389
-0.022675991723923
-0.023193643838952
-0.023691889170808
-0.024170528904994
-0.024629699923367
-0.025069189383172
-0.025489451022237
-0.025890084090133
-0.026272088627012
-0.026634476222664
-0.026979270653735
-0.027303875542321
-0.027612069649145
-0.027896298727072
-0.028160924230038
-0.028377460743352
0.0034574890478861
0.0025809845898857
0.0016601330544912
0.00073372818494944
-0.00018123715603234
-0.0010853084857446
-0.0019846480507269
-0.0028835491285348
-0.0037829548039299
-0.0046817246595592
-0.0055780557764327
-0.0064703694629814
-0.0073575945492523
-0.0082389818044959
-0.0091138106110695
-0.0099812535987856
-0.010840395421898
-0.0116902896516
-0.012529993604057
-0.013358580665314
-0.014175145432236
-0.014978805565153
-0.015768704139264
-0.016544010549266
-0.017303926682565
-0.018047697261288
-0.018774611152647
-0.019484000727616
-0.020175258277186
-0.020847822552679
-0.021501208458987
-0.022134970276034
-0.022748762553888
-0.02334225449817
-0.023915261619478
-0.024467553141386
-0.024999138772032
-0.02550984432691
-0.025999938731284
-0.026469203279428
-0.026918305520612
-0.02734675673426
-0.027755926526421
-0.028144538445426
-0.028515288128699
-0.028864786571862
-0.029198004407258
-0.029505060334199
-0.029791608752063
-0.030020173062993
0.0044296781332259
0.0034615945267598
0.002437307112729
0.001408843533897
0.00039818166089644
-0.00059621025117075
-0.0015830266353006
-0.0025681441380556
-0.003552846864088
-0.0045357080932206
-0.0055145516270734
-0.0064875840112733
-0.0074536990949871
-0.0084121965287977
-0.0093623950051728
-0.010303466958157
-0.011234472044891
-0.012154434338364
-0.013062386288047
-0.013957381279944
-0.014838497352484
-0.015704837631655
-0.016555532375304
-0.017389739278616
-0.018206650984088
-0.019005507354172
-0.019785596837618
-0.020546253800139
-0.021286880688
-0.022006927645471
-0.022705933061228
-0.023383471857265
-0.024039240515273
-0.024672938092236
-0.025284446748833
-0.025873569715039
-0.026440419367156
-0.026984847662835
-0.02750728319736
-0.028007498984779
-0.028486421072046
-0.028943460060095
-0.029380427101966
-0.029795722904948
-0.030192833234714
-0.030567489846889
-0.030926048327636
-0.031256061389106
-0.031564700158294
-0.031804522575659
0.0055214248445947
0.0044514772394866
0.0033109547588778
0.0021681086291583
0.001050739244549
-4.4117032648055e-05
-0.0011282916211857
-0.0022095100825705
-0.0032893641441985
-0.0043660145194925
-0.0054368253380915
-0.0064997648452425
-0.0075537009643417
-0.0085979932036371
-0.0096319987342657
-0.010654878733078
-0.011665654671547
-0.012663310095496
-0.013646843751136
-0.014615281603436
-0.015567678129953
-0.016503114634814
-0.017420701310873
-0.018319577016088
-0.019198918658004
-0.020057955279655
-0.020895969209591
-0.021712290683983
-0.022506328145995
-0.023277538516328
-0.024025482842146
-0.024749753327255
-0.025450089943288
-0.026126218755428
-0.026778096490864
-0.02740555841812
-0.02800883555249
-0.028587803801534
-0.029143080182458
-0.029674423969389
-0.030183067303196
-0.030668306411391
-0.031132470313746
-0.031573605269437
-0.031996108600304
-0.032394762617337
-0.032777500384664
-0.033129123155376
-0.033458556161163
-0.03370764671779
0.0067392182119903
0.0055570475670971
0.0042870584711561
0.0030172014636867
0.0017819791685304
0.0005764111559783
-0.00061517252723771
-0.0018026156296069
-0.0029877438756654
-0.0041681474887179
-0.0053406363601816
-0.0065029228279571
-0.007653865275881
-0.0087928936467767
-0.0099193966717385
-0.011032507677992
-0.012131192261749
-0.013214378901319
-0.014281021463005
-0.015330108293778
-0.01636065983122
-0.017371724494035
-0.018362381165691
-0.019331738542406
-0.020278947144431
-0.021203215650069
-0.022103811982375
-0.022980052673017
-0.023831343150582
-0.024657135725168
-0.025457007242152
-0.026230558654732
-0.026977573103049
-0.027697795440978
-0.028391260624976
-0.029057827871134
-0.029697861172883
-0.030311252260931
-0.030898834862826
-0.031460344291746
-0.031997367096658
-0.03250906950406
-0.032998374101605
-0.03346294812334
-0.033908217028263
-0.034327970177079
-0.034731898163896
-0.035101955838137
-0.035449059691773
-0.035703939056787
0.008090317005741
0.0067854709274714
0.0053723319066388
0.0039625476584258
0.0025982118365432
0.0012715723874721
-3.7677019605463e-05
-0.0013417551814946
-0.0026425955338069
-0.0039370240572492
-0.0052211982932804
-0.0064925691497813
-0.0077500082024176
-0.0089930242198854
-0.01022102430321
-0.011433089795277
-0.012628107786954
-0.013804934230148
-0.014962463503366
-0.016099632653879
-0.017215414019899
-0.0183088081083
-0.019378847159675
-0.020424593904735
-0.02144515735171
-0.022439710733833
-0.023407492563109
-0.02434779163713
-0.025259999492375
-0.026143547800909
-0.026998015617816
-0.027822995602309
-0.028618306992145
-0.029383698513327
-0.030119282956226
-0.030824926868669
-0.0315011362187
-0.032147802881242
-0.032766002172747
-0.033355429612608
-0.03391807108888
-0.034452946332972
-0.034963640622155
-0.035447426389309
-0.035910854587326
-0.036346715779853
-0.036766597577718
-0.037149640946432
-0.037508959073966
-0.037764221238727
0.0095822458174508
0.008144209440467
0.0065738389898331
0.0050110098409234
0.003506257183341
0.0020481032454482
0.00061072026360223
-0.00082070643674416
-0.0022480254715498
-0.0036670707369182
-0.00507325049387
-0.0064637621477315
-0.0078375216842947
-0.0091941211714175
-0.010532962626357
-0.011853044043468
-0.013153146684469
-0.014432032859303
-0.01568852000286
-0.016921476275169
-0.018129806781807
-0.019312444274974
-0.020468354498351
-0.021596533514497
-0.022696028003607
-0.023765956350991
-0.024805510698839
-0.025813930964314
-0.026790570410428
-0.027734816271023
-0.028646234463882
-0.029524388792633
-0.030369118448481
-0.031180150708334
-0.031957665208845
-0.032701511959858
-0.033412337738478
-0.03409001089954
-0.034735860477406
-0.035349523063604
-0.035933414492051
-0.036486398668282
-0.037012773220659
-0.037509424108648
-0.037984090120588
-0.038428609184584
-0.038856536190708
-0.039244380225263
-0.039607582156275
-0.039855424981696
0.01122229081008
0.0096405501971274
0.0078985837111056
0.006169548077471
0.0045131609601104
0.0029130277282196
0.0013368471410114
-0.00023293703479498
-0.0017978102595262
-0.0033523566782508
-0.004891154920538
-0.0064111796929027
-0.0079114254528487
-0.0093915614145124
-0.010850949821432
-0.012288465224314
-0.013702751715226
-0.015092455034086
-0.016456294395314
-0.017793046198066
-0.01910152302327
-0.020380563767321
-0.021629041547767
-0.022845864263449
-0.024029991593298
-0.025180454912605
-0.026296377378271
-0.027376929322709
-0.028421391984637
-0.029429072629916
-0.030399497286448
-0.031332177454333
-0.032226943586206
-0.033083471124027
-0.033901978257447
-0.034682271574363
-0.035425113164074
-0.0361303251403
-0.036799468852323
-0.037432112760943
-0.038031087288695
-0.038595120657401
-0.039129209755048
-0.039629924314008
-0.040106168009484
-0.040548982808177
-0.04097384954074
-0.04135504542217
-0.041710363900243
-0.041940156348761
0.013016948730123
0.011281116511332
0.0093531121629308
0.0074448785178386
0.0056258823651837
0.0038733803090308
0.0021476011798577
0.00042819840997095
-0.0012855697238386
-0.0029867467286024
-0.0046690251231193
-0.006329217604564
-0.0079664383198288
-0.0095804131167206
-0.011170411165752
-0.012735134798026
-0.014273056989323
-0.015782681260155
-0.017262605133915
-0.018711485946237
-0.020128011886184
-0.021510892779153
-0.022858870766585
-0.024170733377278
-0.025445327479877
-0.026681582710542
-0.027878528849327
-0.029035208114632
-0.030150772935933
-0.031224429889465
-0.032255634369781
-0.033243812761925
-0.034188732232411
-0.035089990609038
-0.035947785381983
-0.03676186529221
-0.03753303360924
-0.038261068923841
-0.038947669804323
-0.039592375739251
-0.040198305688614
-0.040764162724903
-0.041295465095401
-0.041788699784019
-0.042253679870623
-0.042681071623823
-0.043087952602731
-0.043447136346183
-0.043778643690602
-0.0439762692728
0.014971407636501
0.013071312256763
0.010943016065018
0.0088431063718104
0.0068510282421578
0.0049359465266861
0.0030496666543697
0.0011691931840927
-0.00070498134181945
-0.0025640705335111
-0.0044008699148165
-0.0062121194565899
-0.0079970888659021
-0.0097555204114067
-0.011486521384669
-0.013188563599528
-0.014859911200412
-0.016498898695602
-0.018103973296804
-0.019673639976423
-0.021206430877372
-0.022700884118233
-0.024155569453626
-0.025569099772909
-0.026940145777402
-0.028267544296681
-0.029550231400883
-0.030787035336312
-0.031976901376668
-0.033118914646589
-0.034212409810347
-0.035256692020062
-0.036251384622147
-0.037195995134609
-0.038090596917767
-0.038934895795937
-0.039729583637363
-0.040474461406695
-0.041171142687081
-0.041819288849749
-0.042421979474197
-0.042978195617946
-0.043493478604435
-0.043964822833812
-0.044402169288293
-0.044796879241458
-0.045166512449035
-0.045484179024978
-0.045771103553078
-0.045918211706124
0.017089499835186
0.015015105940057
0.012672642368772
0.01036929259002
0.0081944608716846
0.006107018014994
0.0040493533762259
0.0019962278903791
-4.9945195273014e-05
-0.0020782687206892
-0.004080718709901