/*--------------------------------*- C++ -*----------------------------------*\
| =========                 |                                                 |
| \\      /  F ield         | OpenFOAM: The Open Source CFD Toolbox           |
|  \\    /   O peration     | Version:  2112                                  |
|   \\  /    A nd           | Website:  www.openfoam.com                      |
|    \\/     M anipulation  |                                                 |
\*---------------------------------------------------------------------------*/
FoamFile
{
    version     2.0;
    format      ascii;
    arch        "LSB;label=32;scalar=64";
    class       surfaceScalarField;
    location    "6.6";
    object      phi;
}
// * * * * * * * * * * * * * * * * * * * * * * * * * * * * * * * * * * * * * //

dimensions      [0 3 -1 0 0 0 0];

oriented        oriented;

internalField   nonuniform List<scalar> 
43645
(
0.39512364877239
-4.775673129352e-06
0.3951379526875
-1.4303872909576e-05
0.39516173788455
-2.3785151403795e-05
0.39519489712138
-3.31591897151e-05
0.39523728666325
-4.2389494600697e-05
0.39528879828951
-5.1511579575141e-05
0.39534946678271
-6.066844749716e-05
0.39541953488713
-7.0068059900512e-05
0.39549942025753
-7.9885327166754e-05
0.395589628326
-9.0208026541882e-05
0.39569065466901
-0.00010102630242175
0.39580293864846
-0.00011228394017763
0.39592684095376
-0.0001239022673434
0.39606269792313
-0.00013585693264186
0.39621084383251
-0.00014814587384335
0.39637171596462
-0.00016087209766592
0.39654579999774
-0.00017408399968408
0.39673373533884
-0.00018793530852521
0.39693607309399
-0.00020233772335047
0.39715348640433
-0.00021741327913969
0.39738626252718
-0.00023277609214295
0.3976349108139
-0.00024864825632358
0.39789913241122
-0.00026422156711058
0.39817934184558
-0.00028020940417216
0.3984743839784
-0.00029504210252495
0.39878504161907
-0.00031065761012221
0.39910882931656
-0.00032378766657209
0.39944790489405
-0.00033907554648883
0.3997972722898
-0.0003493673648208
-0.00036516152586895
0.40016243384755
0.37294702154173
-9.2424076872338e-06
0.3729604310362
-2.7713295760829e-05
0.37298289617329
-4.6250215586001e-05
0.37301429488208
-6.4557825755485e-05
0.37305446363656
-8.255817734293e-05
0.37310327756638
-0.00010032543906276
0.37316075522043
-0.00011814603284439
0.3732271212267
-0.00013643399915271
0.37330277359909
-0.0001555376343189
0.37338819794592
-0.00017563230987829
0.37348387069368
-0.00019669898847311
0.37359021281867
-0.0002186260051974
0.37370756740931
-0.00024125679972945
0.37383625405472
-0.00026454352140367
0.37397659193706
-0.00028848370109377
0.37412900509841
-0.00031328520531171
0.37429396963334
-0.00033904848220556
0.37447211828521
-0.00036608390906942
0.37466400261572
-0.00039422200349109
0.37487029925912
-0.00042370987290377
0.37509131233774
-0.00045378912170576
0.37532756648043
-0.00048490235031529
0.37557880309598
-0.00051545813414403
0.3758454578392
-0.00054686409887318
0.37612644989028
-0.00057603410489693
0.37642257060001
-0.00060677827078197
0.37673147172202
-0.00063268873902887
0.37705526622761
-0.00066287000256223
0.37738923460175
-0.00068333569044026
-0.00071466105236343
0.37773873417869
0.35201528988438
-1.3634698536267e-05
0.35202842121393
-4.0844552555239e-05
0.35205028767392
-6.8116602607943e-05
0.35208076175988
-9.5031839660257e-05
0.35211966872723
-0.00012146507422043
0.35216686370151
-0.00014752034470375
0.35222234003687
-0.0001736223015602
0.35228629618392
-0.00020039008157165
0.35235910557543
-0.00022834696327023
0.35244123242071
-0.00025775909465457
0.35253313389775
-0.0002886004070796
0.35263521363728
-0.00032070568826942
0.35274779688969
-0.00035383999762682
0.35287118651822
-0.00038793309720513
0.35300568278875
-0.00042297992058098
0.35315169343523
-0.00045929580222311
0.35330967476432
-0.00049702976304321
0.35348024817917
-0.00053665727674542
0.35366395071455
-0.00057792449257463
0.35386146585776
-0.00062122497041867
0.3540730989306
-0.00066542214926829
0.35429941506028
-0.00071121843484262
0.35454017504627
-0.00075621807490851
0.3547958968221
-0.00080258582915536
0.35506552324301
-0.00084566047973701
0.35534997166401
-0.00089122664497227
0.35564689146973
-0.00092960849705599
0.35595856722044
-0.00097454570520345
0.35628020139433
-0.0010049698169958
-0.0010517980036233
0.35661733839535
0.33225836596121
-1.7956637610439e-05
0.33227126111887
-5.373964425467e-05
0.3322926772997
-8.953271727032e-05
0.33232245204804
-0.00012480652262916
0.33236037921947
-0.00015939218163802
0.33240628396646
-0.00019342502923785
0.33246012977164
-0.00022746804600571
0.33252208738046
-0.00026234763138159
0.33259250643567
-0.00029876596127665
0.33267183209567
-0.00033708469923315
0.33276050476026
-0.00037727301805284
0.33285891318117
-0.00041911405729335
0.33296736672583
-0.00046229349211583
0.33308615460367
-0.00050672092644928
0.33321556127743
-0.00055238654723565
0.33335598364934
-0.00059971812833312
0.33350786245522
-0.00064890852430791
0.33367181518793
-0.00070060996578614
0.33384836781921
-0.00075447708099593
0.33403822040747
-0.0008110775163659
0.33424168138439
-0.0008688830842798
0.3344593711861
-0.00092890819479291
0.33469106925785
-0.00098791610489719
0.33493740009619
-0.001048916625506
0.33519732398127
-0.0011055843224553
0.33547192589487
-0.0011658285156329
0.33575883874267
-0.0012165213012407
0.33606059834715
-0.001276305265922
0.33637231386382
-0.001316685290773
-0.0013794098822858
0.3366999257876
0.3136103255914
-2.2224794465141e-05
0.31362302735815
-6.6441353454518e-05
0.313644072089
-0.00011057739070009
0.31367326415034
-0.00015399852751508
0.3137103612073
-0.00019648918358459
0.31375515173762
-0.00023821550611496
0.31380756415498
-0.0002798804116382
0.31386773920764
-0.00032252263403126
0.31393600282508
-0.00036702953049244
0.31401278241433
-0.00041386424198913
0.31409850255512
-0.00046299311409767
0.31419353710763
-0.00051414856670568
0.31429817778013
-0.00056693412313131
0.3144126977684
-0.00062124087467782
0.31453736281398
-0.00067705155412883
0.31467255828043
-0.00073491355724646
0.31481870965022
-0.00079505985757016
0.31497643533563
-0.00085833561543566
0.31514625515226
-0.00092429686246869
0.31532889617373
-0.00099371850304105
0.31552467719377
-0.0010646640697198
0.3157342886754
-0.0011385196417705
0.31595753599488
-0.0012111633895187
0.31619516915897
-0.0012865497543092
0.31644617175227
-0.0013565868798948
0.31671182037353
-0.0014314771002784
0.31698973466639
-0.0014944355566261
0.31728272797885
-0.0015692985405164
0.31758580882832
-0.0016197661029382
-0.001698926071955
0.31790532505767
0.29600892195374
-2.6444839215503e-05
0.29602144474718
-7.8964095364457e-05
0.2960421423154
-0.00013127490760468
0.29607078544129
-0.00018264160293418
0.29610709376963
-0.00023279746268047
0.29615081618636
-0.00028193787490258
0.29620184305551
-0.00033090723428383
0.29626028306591
-0.00038096259933585
0.2963264374887
-0.00043318390967956
0.29640071586865
-0.00048814257977296
0.29648352691624
-0.0005458041209948
0.29657522937184
-0.0006058509830089
0.29667609645441
-0.00066780116777927
0.29678638459378
-0.00073152897735716
0.29690633990362
-0.00079700682845743
0.2970363363223
-0.00086490994141801
0.29717678434907
-0.0009355078507385
0.29732830529128
-0.0010098565247505
0.29749141480603
-0.0010874063449025
0.29766687117656
-0.0011691748416469
0.29785500771103
-0.0012528005725173
0.29805659109795
-0.0013401029971065
0.2982714594604
-0.0014260317203386
0.29850049485987
-0.0015155851219484
0.29874271531666
-0.0015988073045346
0.29899959129185
-0.0016883530428952
0.29926874863705
-0.0017635928687287
0.299553266324
-0.0018538161943072
0.29984809231828
-0.0019145920647959
-0.0020107672619912
0.30015993354274
0.2793954004182
-3.0610696688868e-05
0.27940772437165
-9.1288006144761e-05
0.27942804371245
-0.00015159420607347
0.27945609581823
-0.00021069366720601
0.27949156217416
-0.00026826377822161
0.27953415166798
-0.0003245273294974
0.27958371612395
-0.00038047165230174
0.27964033184189
-0.00043757828056803
0.27970427524635
-0.00049712727873386
0.27977593784757
-0.00055980514683988
0.2798557120893
-0.00062557832985168
0.27994394087807
-0.00069407974010017
0.28004087773619
-0.00076473799538825
0.28014676096015
-0.00083741217183866
0.28026181548335
-0.00091206132317362
0.2803864024189
-0.00098949684930124
0.28052091615656
-0.0010700215614706
0.28066597994713
-0.0011549202889422
0.28082210547379
-0.0012435318456243
0.28099008199454
-0.0013371513367308
0.28117026026155
-0.0014329788139992
0.28136348312087
-0.0015333258309033
0.28156962968958
-0.0016321782633917
0.28178971110825
-0.0017356665147159
0.28202279796483
-0.001831894134837
0.28227054114776
-0.0019360961991066
0.28253061159582
-0.0020236632895249
0.28280631489985
-0.0021295194709326
0.28309262061206
-0.0022008977501175
-0.0023146499964278
0.28339650337528
0.26371430511425
-3.4706326168599e-05
0.26372638166838
-0.00010336452392213
0.26374624696514
-0.0001714594667802
0.26377360677852
-0.00023805344518541
0.26380810620431
-0.00030276316946651
0.26384941571343
-0.00036583680491999
0.2638973497162
-0.00042840562233117
0.26395195251803
-0.00049218105055382
0.26401347556455
-0.00055865029440316
0.26408229169762
-0.0006286212499847
0.26415877611083
-0.00070206271412428
0.26424325459094
-0.00077855819217119
0.26433595972377
-0.00085744310109155
0.26443711030254
-0.00093856272430857
0.26454690872238
-0.001021859717507
0.26466570136992
-0.0011082894720142
0.26479386515988
-0.0011981853272355
0.26493202254367
-0.0012930776490308
0.26508068092677
-0.0013921902054632
0.26524065699142
-0.0014971273784324
0.26541232191212
-0.0016046437119825
0.2655965892976
-0.0017175931938123
0.26579338932758
-0.0018289782708517
0.26600385035383
-0.0019461275184528
0.26622712044515
-0.0020551642035382
0.26646500209238
-0.0021739778235967
0.2667152653592
-0.0022739265334167
0.26698137547599
-0.0023956295649652
0.26725843485481
-0.0024779571068379
-0.0026097580291953
0.2675535429111
0.24891329476499
-3.87083735006e-05
0.2489250552954
-0.00011512502548876
0.24894435891569
-0.00019076305851228
0.24897088273821
-0.00026457723966215
0.24900423869787
-0.00033611910174081
0.24904406189084
-0.00040565997116121
0.2490901317323
-0.00047447543776443
0.24914246170236
-0.00054451099526082
0.24920127848619
-0.00061746705359916
0.24926693541397
-0.00069427815381248
0.24933978964532
-0.000774916922243
0.24942014876465
-0.00085891728891804
0.24950822367972
-0.00094551799426353
0.24960421243053
-0.0010345514538093
0.24970829399037
-0.0011259412566269
0.24982079792413
-0.0012207933855483
0.24994208232191
-0.0013194697052454
0.25007276471989
-0.0014237600276082
0.2502133478451
-0.0015327733115925
0.25036466920282
-0.0016484487172991
0.25052712381919
-0.0017670983096567
0.25070168564722
-0.0018921550032633
0.25088834813382
-0.0020156407388932
0.25108833654176
-0.0021461159078346
0.25130090695817
-0.0022677346013198
0.25152796999062
-0.002401040837332
0.25176746139103
-0.0025134179149848
0.252022914855
-0.0026510830102857
0.25228970094368
-0.0027447431774191
-0.0028949192391194
0.25257486217292
0.23494296806696
-4.2588858038789e-05
0.23495433088565
-0.00012648782080937
0.23497294423557
-0.00020937638527958
0.23499846038806
-0.00029009336933699
0.23503046255745
-0.00036812124873063
0.2350685548055
-0.00044375219719968
0.23511248513393
-0.00051840574460987
0.23516223813373
-0.00059426397386507
0.23521801645776
-0.00067324535686905
0.23528015317697
-0.00075641485265308
0.23534898692694
-0.00084375065230239
0.23542480573333
-0.00093473607579063
0.23550779897612
-0.0010285112179873
0.23559814291623
-0.0011248953752331
0.23569599299305
-0.0012237913151641
0.23580165981226
-0.0013264601868321
0.23591548154291
-0.0014332914183164
0.23603806610128
-0.001546344568699
0.23616991130965
-0.0016646185029644
0.23631186651357
-0.0017904039044593
0.23646435531967
-0.0019195870991941
0.23662839695109
-0.0020561966183232
0.23680406231586
-0.0021913060874418
0.23699264633531
-0.002334699911225
0.23719354820183
-0.0024686364518768
0.23740873082837
-0.0026162234480538
0.23763637140127
-0.0027410584721456
0.23787996237417
-0.0028946739678414
0.23813529233947
-0.0030000731280133
-0.0031687669708848
0.23840914008676
0.22175669809791
-4.6317148735037e-05
0.22176757553487
-0.00013736523983651
0.22178535968408
-0.00022716051668659
0.22180968261523
-0.00031441628288584
0.2218401041863
-0.00039854280243993
0.22187620279791
-0.00047985079163291
0.22191769943616
-0.00055990236589445
0.22196455248553
-0.00064111700642644
0.22201694148988
-0.00072563434461354
0.22207517886466
-0.00081465221100146
0.22213958424488
-0.00090815601629151
0.22221042519494
-0.0010055770098097
0.22228787016177
-0.0011059561689934
0.22237207266959
-0.0012090978674217
0.22246316600797
-0.00131488463813
0.22256143931609
-0.0014247334797464
0.22266721096011
-0.0015390630473312
0.22278107409115
-0.0016602076849338
0.22290352168676
-0.0017870660839623
0.22303540512757
-0.0019222873308275
0.22317718204706
-0.0020613640044057
0.22332989802651
-0.0022089125836713
0.22349371853368
-0.0023551265806545
0.22366997490779
-0.0025109562715497
0.22385824711573
-0.002656908646157
0.22406048663279
-0.0028184629516615
0.22427519366198
-0.0029557654880325
0.22450569786484
-0.0031251781578328
0.22474836132357
-0.0032427365744768
-0.0034298846237587
0.22500947898933
0.20931047673396
-4.9861919357493e-05
0.20932078089318
-0.00014766938513587
0.20933759598634
-0.00024397559596651
0.20936053921568
-0.00033735949841091
0.20938915299738
-0.00042715657037973
0.20942299599365
-0.00051369377415215
0.20946176699234
-0.00059867335084217
0.20950540125337
-0.00068475125366918
0.20955405623855
-0.00077428931600191
0.20960802376341
-0.00086861972203058
0.20966760380737
-0.00096773604641891
0.20973304339798
-0.0010710165865893
0.20980449052703
-0.0011774032842354
0.2098820761169
-0.0012866834435313
0.20996591294124
-0.0013987214487689
0.21005626642498
-0.001515086949879
0.21015343701947
-0.0016362336283235
0.21025799680921
-0.0017647674613132
0.2103704356665
-0.0018995049280245
0.21049159657103
-0.0020434482223141
0.21062197672262
-0.0021917441431202
0.21076262806185
-0.0023495639102459
0.21091382915887
-0.0025063276652091
0.2110769097331
-0.0026740368335825
0.21125167075165
-0.0028316696527253
0.21143998477056
-0.0030067769589021
0.21164075579794
-0.0031565365040114
0.21185702527096
-0.0033414476199732
0.21208588086294
-0.0034715921561988
-0.0036769205936448
0.21233291684348
0.19756276817028
-5.3193549597957e-05
0.19757241597261
-0.00015731717692228
0.19758812986943
-0.00025968948221837
0.19760951752088
-0.00035874713924383
0.19763611000097
-0.00045374903978545
0.19766745234285
-0.00054503610521501
0.19770322619298
-0.00063444719002973
0.1977433468989
-0.00072487194844994
0.19778795094609
-0.00081889335188308
0.1978373096361
-0.00091797840053783
0.19789170278449
-0.0010221291831465
0.1979513572679
-0.0011306710581776
0.19801640108908
-0.0012424470934686
0.19808694371344
-0.0013572260558399
0.19816307883927
-0.0014748565624938
0.1982450470419
-0.0015970551403926
0.19833313301876
-0.0017243195930656
0.19842788163166
-0.001859516062176
0.19852978334989
-0.002001406634296
0.19863966090689
-0.0021533257675184
0.19875805803132
-0.0023101412559068
0.19888601295145
-0.0024775188189711
0.19902393549828
-0.0026442502008267
0.19917311477155
-0.002823216095955
0.19933361375276
-0.002992168623288
0.19950715775417
-0.0031803209500239
0.19969313131332
-0.0033425100531677
0.19989416805508
-0.0035424843522962
0.20010822246258
-0.0036856465548338
-0.0039086838484469
0.20033998572653
0.18647436942743
-5.6285599292188e-05
0.18648328688149
-0.00016623462278576
0.1864977822198
-0.0002741848122303
0.18651745872282
-0.00037842363383105
0.18654184198958
-0.00047813229796683
0.18657046937004
-0.00057366347685941
0.18660301032294
-0.0006669881338909
0.18663936340019
-0.00076122501636275
0.18667964529506
-0.00085917523715589
0.18672410674895
-0.00096243984452064
0.18677300710772
-0.0010710295317293
0.18682655326571
-0.0011842172057125
0.18688485431672
-0.0013007481337791
0.18694799944941
-0.0014203711776298
0.18701606507283
-0.0015429221748571
0.18708926662774
-0.0016702566841463
0.18716787498917
-0.0018029279432867
0.1872524027647
-0.0019440438265332
0.18734334529338
-0.0020923491518598
0.18744149299991
-0.0022514734631151
0.1875474449509
-0.0024160931961248
0.18766220505352
-0.0025922789111085
0.18778633174613
-0.0027683768832002
0.18792103704458
-0.0029579213845626
0.18806668393887
-0.0031378155080343
0.18822478552057
-0.0033384225226177
0.18839527701659
-0.0035130015404173
0.18858027687692
-0.0037274842044306
0.18877872867013
-0.0038840983403695
-0.0041241986948952
0.18899424352445
0.1760082791347
-5.9115967870331e-05
0.17601640505774
-0.00017436053923402
0.17602958498761
-0.00028736473536349
0.17604742256221
-0.00039626120150411
0.17606944345939
-0.00050015318804026
0.1760951829048
-0.00059940291491305
0.17612430280167
-0.0006961080231361
0.17615668770692
-0.00079360991367868
0.17619243562389
-0.00089492314587439
0.17623177648796
-0.0010017806999821
0.176274949143
-0.0011142021778316
0.17632214035176
-0.00123140840519
0.17637344175955
-0.0013520495319668
0.17642892308044
-0.001475852488642
0.17648864585828
-0.0016026449425886
0.17655279991391
-0.0017344107295014
0.17662164469281
-0.0018717727118118
0.17669565622708
-0.0020180553504295
0.17677533870796
-0.002172031622425
0.17686143955368
-0.0023375742987083
0.17695462179337
-0.002509275425902
0.17705583549802
-0.0026934926061882
0.17716580432076
-0.0028783456966918
0.17728563026481
-0.003077747319823
0.17741600868481
-0.0032681939196133
0.17755818456484
-0.0034805983947433
0.1777127033668
-0.0036675203348373
0.17788107710061
-0.0038958579312591
0.17806333949743
-0.0040663607306617
-0.0043227379664275
0.1782618787757
0.16612957373031
-6.1667712965955e-05
0.16613686194818
-0.00018164875141136
0.16614865393802
-0.00029915671935519
0.16616455785201
-0.00041216510949172
0.16618410431996
-0.00051969964982344
0.16620683144132
-0.00062213002990157
0.16623239781214
-0.00072167438739395
0.16626067646102
-0.00082188855572039
0.16629174757503
-0.00092599425280283
0.16632581975532
-0.001035852872853
0.16636311118621
-0.0011514936009925
0.1664037882221
-0.0012720854329776
0.16644792667802
-0.001396187979458
0.16649557722074
-0.0015235030225914
0.1665467894133
-0.0016538571261091
0.16660172643564
-0.001789347742592
0.16666063920022
-0.0019306854670106
0.16672396297627
-0.002081379117087
0.16679221426142
-0.0022402828982665
0.16686608871873
-0.0024114487469347
0.16694631987906
-0.0025895065774276
0.1670337875615
-0.0027809602802715
0.16712939439502
-0.0029739525222879
0.16723410466173
-0.0031824575792064
0.16734897172973
-0.0033830609807684
0.1674749281611
-0.0036065548198743
0.1676131770975
-0.0038057692654183
0.16776455222295
-0.0040472330514504
0.16793025565271
-0.0042320641554729
-0.0045038226557706
0.16811134034723
0.15680529051038
-6.3929528516828e-05
0.15681171130535
-0.00018806954108474
0.15682206926696
-0.00030951467558969
0.1568359806685
-0.0004260765056143
0.15685298540855
-0.00053670438446131
0.15687262863457
-0.00064177325046552
0.15689456912516
-0.00074361487252183
0.15691867039912
-0.00084598982413817
0.15694499556051
-0.00095231940856143
0.15697373137987
-0.0010645886863915
0.15700507508196
-0.0011828372970404
0.15703917215336
-0.0013061824980369
0.15707608389432
-0.0014330997137576
0.15711584212167
-0.0015632612429384
0.15715848700582
-0.0016965020029597
0.15720415409731
-0.0018350148265513
0.15725308815513
-0.0019796195171518
0.15730568060816
-0.0021339715624293
0.15736246180891
-0.0022970640914372
0.15742406976445
-0.0024730566951879
0.15749131147248
-0.0026567482785416
0.15756498458527
-0.0028546333867378
0.15764617905109
-0.0030551469823719
0.15773570172924
-0.0032719802523907
0.15783498020124
-0.0034823394484532
0.15794460236158
-0.0037161769766708
0.15806646211689
-0.0039276290176861
0.15820066561099
-0.0041814365430415
0.15834964013631
-0.0043810386784275
-0.0046672114380503
0.15851302892123
0.14800431733706
-6.5895930617124e-05
0.14800985758865
-0.00019360978719524
0.14801876208918
-0.00031841917073367
0.14803065840304
-0.00043797281436594
0.14804509947982
-0.00055114545646065
0.14806164107737
-0.00065831484357371
0.14807994490023
-0.00076191869129115
0.14809986619688
-0.00086591111696823
0.1481214511944
-0.0009739044024836
0.14814486424693
-0.0010880017354136
0.1481702813749
-0.0012082544214661
0.14819782702096
-0.0013337281404026
0.14822754880529
-0.0014628214941438
0.14825946013586
-0.0015951725692662
0.14829359293266
-0.0017306347952239
0.14833005522679
-0.0018714771159022
0.14836908531633
-0.002018649601763
0.14841103062915
-0.0021759168703164
0.14845643263798
-0.0023424660954817
0.14850587081636
-0.0025224948691593
0.14856022149478
-0.0027110989530627
0.14862019735831
-0.0029146092471189
0.14868707154201
-0.0031220211637373
0.14876148958348
-0.0033463982925383
0.14884525383122
-0.0035661036957745
0.14893859679174
-0.0038095199377522
0.14904411014522
-0.004033142372388
0.14916114846478
-0.0042984748643423
0.14929338713714
-0.0045132773524003
-0.0048128621082371
0.149439037806
0.13969728832792
-6.7566992543866e-05
0.13970195133046
-0.00019827278284083
0.13970940898776
-0.00032587682144129
0.1397193025217
-0.00044786634248509
0.13973120117096
-0.00056304410084714
0.13974467452461
-0.00067178819329786
0.13975938986488
-0.00077663402858184
0.13977519503678
-0.00088171628671315
0.13979211891896
-0.00099082828320415
0.13981030200919
-0.0011061848246582
0.13982989842819
-0.0012278508397498
0.13985101178418
-0.0013548414957188
0.13987367668749
-0.0014854863966689
0.13989788974921
-0.0016193856299691
0.13992367375168
-0.0017564187964084
0.13995111151319
-0.0018989148758808
0.13998042994501
-0.0020479680319091
0.14001193688088
-0.0022074238045338
0.14004617430547
-0.0023767035186193
0.14008367225146
-0.002559992814173
0.14012535630364
-0.0027527830049238
0.14017187279145
-0.0029611257355835
0.14022464311302
-0.0031747914870425
0.1402841836591
-0.003405938841682
0.14035262782431
-0.0036345478653045
0.14042990067867
-0.0038867927977299
0.14051925293841
-0.0041224946386316
0.14061931667289
-0.0043985386058507
0.14073497179711
-0.0046289324832217
-0.0049408630485856
0.1408629727312
0.13185648505027
-6.8947303656222e-05
0.13186028792201
-0.00020207564328367
0.13186632904411
-0.00033191793245744
0.1318742650688
-0.00045580235743944
0.13188368348763
-0.0005724625117224
0.13189416980719
-0.00068227450672298
0.13190539886793
-0.00078786308493348
0.13191721159879
-0.00089352901472723
0.13192961943097
-0.0010032361138176
0.13194273762437
-0.0011193030174219
0.13195669780195
-0.0012418110173199
0.13197158255294
-0.0013697262469744
0.13198741390674
-0.0015013177507775
0.13200417365073
-0.0016361453741278
0.13202187341377
-0.0017741185593968
0.13204057454026
-0.001917616002099
0.13206048383647
-0.0020678773277283
0.13208187854046
-0.0022288185082002
0.13210528032039
-0.0024001052985122
0.13213119416978
-0.0025859066641332
0.13216054770958
-0.0027821365461662
0.13219398030704
-0.0029945583357281
0.13223296535052
-0.0032137765346396
0.13227800501033
-0.0034509785073406
0.13233139666683
-0.0036879395293565
0.13239294668559
-0.0039483428257881
0.1324663641884
-0.0041959121519685
0.13254983491653
-0.0044820093451302
0.13264926533736
-0.0047283629144866
-0.0050513998648765
0.1327598021438
0.12445574409705
-7.0045044010414e-05
0.12445871453711
-0.0002050460617756
0.12446338803884
-0.00033659141198124
0.12446943819091
-0.0004618524889196
0.12447647334827
-0.00057949765106417
0.12448409756034
-0.00068989870353643
0.12449199402756
-0.00079575953951067
0.12449999445547
-0.00090152943226601
0.12450809049626
-0.0010113321461029
0.12451637023012
-0.0011275827441598
0.12452494419246
-0.0012503849734627
0.12453387483634
-0.0013786568851767
0.1245431742942
-0.0015106172031622
0.12455281032411
-0.001645781398535
0.12456278297297
-0.001784091202623
0.12457313235353
-0.001927965376897
0.12458403764397
-0.0020787826123666
0.12459575208598
-0.0022405329445898
0.12460875342873
-0.0024131066361015
0.12462355342382
-0.002600706654879
0.12464101178693
-0.0027995949061306
0.12466186330868
-0.0030154098559517
0.12468745595308
-0.0032393691794134
0.12471854052597
-0.0034820630828648
0.12475717541155
-0.0037265744198714
0.12480358394033
-0.0039947513618217
0.12486110469235
-0.0042534329130131
0.12492855546423
-0.0045494601268782
0.12501197121343
-0.0048117786727218
-0.0051453445804635
0.12510591592128
0.11747037004429
-7.0871277061559e-05
0.1174725451102
-0.00020722108737346
0.11747591728497
-0.00033996354455269
0.11748017393813
-0.00046610910142418
0.11748494697722
-0.00058427065254562
0.11748986480405
-0.00069481649619069
0.11749462167784
-0.00080051638241402
0.11749903794027
-0.00090594566662539
0.11750308116061
-0.0010153753406456
0.11750680713275
-0.0011313086921872
0.1175103047121
-0.001253882529856
0.11751361588101
-0.0013819680318226
0.11751674911476
-0.001513750415005
0.1175196578411
-0.0016486901030855
0.11752233705929
-0.001786770399054
0.11752479723087
-0.0019304255267372
0.11752719436417
-0.0020811797240826
0.11752974600164
-0.0022430845609084
0.11753288518049
-0.0024162457945276
0.11753713282683
-0.0026049542820335
0.11754324085557
-0.0028057029173357
0.11755211406577
-0.0030242830508522
0.11756478761948
-0.003252042720343
0.11758260131735
-0.0034998767709125
0.11760676265275
-0.0037507357484456
0.11763904721561
-0.0040270359209652
0.11768041338326
-0.0042947990794396
0.11773322254649
-0.0046022692902586
0.11779839897356
-0.0048769550992613
-0.0052265840849245
0.11787963848148
0.1108770583098
-7.1444633323088e-05
0.11087848401775
-0.00020864672913512
0.11088063645466
-0.00034211591242849
0.11088321346174
-0.00046868604098998
0.11088587581203
-0.00058693293865282
0.11088827752027
-0.00069721814405092
0.11089011857934
-0.00080235738466426
0.11089120314178
-0.00090703017528415
0.11089147548678
-0.0010156476342297
0.11089096305226
-0.0011307962079962
0.11088973654538
-0.0012526559744991
0.11088781831381
-0.001380049752545
0.11088521714084
-0.0015111491948055
0.11088186707619
-0.0016453399914758
0.11087776483803
-0.0017826681141674
0.11087287240179
-0.0019255330440195
0.11086734257085
-0.0020756498471476
0.11086131899135
-0.002237060936179
0.11085524036216
-0.0024101671213673
0.11084956119848
-0.0025992750761945
0.11084502113599
-0.0028011628151713
0.11084256785306
-0.0030218297312722
0.110843028125
-0.0032525029591155
0.11084825176147
-0.0035051003779706
0.1108583831635
-0.003760867125014
0.11087764422419
-0.0040462969602497
0.11090262980624
-0.0043197846436399
0.11094471755567
-0.0046443570239935
0.1109854895839
-0.0049177271115136
-0.0053015203950442
0.11106042591515
0.10465382187112
-7.1800454812068e-05
0.10465457142418
-0.00020939618850866
0.10465558221477
-0.00034312660760203
0.10465658315408
-0.0004696868867945
0.10465730322257
-0.00058765291703744
0.10465742727706
-0.00069734211214266
0.10465663801068
-0.00080156803528634
0.10465469754054
-0.00090508962489871
0.10465150947883
-0.0010124594944086
0.10464707373269
-0.0011263603852366
0.10464145720564
-0.0012470393718854
0.10463468886126
-0.0013732813333197
0.10462679661789
-0.0015032568770956
0.10461770170251
-0.0016362450021879
0.10460740225243
-0.0017723685906133
0.10459578855482
-0.001913919273517
0.10458301928117
-0.0020628805014262
0.10456910997601
-0.0022231515602954
0.10455458260507
-0.0023956396816318
0.10453967536593
-0.0025843677710998
0.10452538279722
-0.0027868701840435
0.10451223854866
-0.0030086854246932
0.10450162040836
-0.0032418847654082
0.10449465551596
-0.0034981354371158
0.10449218913675
-0.003758400702378
0.10449793888509
-0.0040520466705188
0.10450769034764
-0.0043295360728407
0.10453958205876
-0.0046762487048702
0.10456142258912
-0.0049395676117034
-0.0053662777700522
0.1046261800028
0.09877984952776
-7.1931612026186e-05
0.098780040360402
-0.00020958690974273
0.098779994443848
-0.0003430805791399
0.098779513265062
-0.00046920559822728
0.0987784145682
-0.00058655411343893
0.098776467753241
-0.00069539519354774
0.098773318582126
-0.00079841876317988
0.098768698019465
-0.00090046896323456
0.098762444624483
-0.0010062060017785
0.098754492705665
-0.001118408369617
0.098744875785788
-0.0012374223557332
0.098733641987964
-0.0013620474395417
0.09872085436536
-0.0014904691588293
0.098706452257658
-0.0016218427991006
0.098690449387495
-0.0017563656255305
0.098672690466542
-0.0018961602582932
0.098653327152267
-0.0020435170940529
0.098632242300772
-0.0022020666175043
0.09861003033158
-0.0023734276240508
0.098586651927195
-0.0025609892823587
0.09856348045417
-0.0027636986319813
0.098540294584244
-0.0029854994817812
0.09851967505729
-0.0032212651719757
0.098500575558734
-0.0034790358786098
0.098487590573502
-0.0037454156639167
0.098477580933116
-0.004042036983891
0.098478075902934
-0.0043300310026655
0.098482326559633
-0.0046804993249808
0.098498966717087
-0.0049562077309303
0.098589369885134
-0.0054566808897541
0.39560449667946
0.0045579372005646
0.39120789335029
0.0043966033612777
0.38697682440738
0.0042310689752025
0.38291541263415
0.0040614118060278
0.37902766776385
0.0038877449037617
0.37531749450003
0.0037101732980495
0.37178869209122
0.0035288024438111
0.36844494691402
0.0033437452129381
0.36528982315021
0.0031551238002535
0.36232675142936
0.0029630717579187
0.35955901803236
0.0027677334346019
0.35698975181975
0.002569266250676
0.35462191084018
0.0023678410179732
0.3524582670078
0.0021636438710185
0.35050139233319
0.0019568747133685
0.34875364581524
0.0017477465567046
0.34721716390771
0.0015364819461751
0.34589385414496
0.0013233098011665
0.34478539254208
0.001108461640945
0.34389322482307
0.00089216775664687
0.34321856563894
0.00067465922123968
0.34276239585043
0.00045616982502926
0.34252542754335
0.00023696834295343
0.34250775553811
1.7672040424187e-05
0.34271064467579
-0.00020288910320058
0.3431337403734
-0.00042309566383238
0.34377679158299
-0.00064305117651749
0.34463934146906
-0.00086254985367932
0.34572067980107
-0.0010813383002717
0.34701985942254
-0.0012991795903575
0.34853573300936