/*--------------------------------*- C++ -*----------------------------------*\
| =========                 |                                                 |
| \\      /  F ield         | OpenFOAM: The Open Source CFD Toolbox           |
|  \\    /   O peration     | Version:  2112                                  |
|   \\  /    A nd           | Website:  www.openfoam.com                      |
|    \\/     M anipulation  |                                                 |
\*---------------------------------------------------------------------------*/
FoamFile
{
    version     2.0;
    format      ascii;
    arch        "LSB;label=32;scalar=64";
    class       surfaceScalarField;
    location    "5.8";
    object      phi;
}
// * * * * * * * * * * * * * * * * * * * * * * * * * * * * * * * * * * * * * //

dimensions      [0 3 -1 0 0 0 0];

oriented        oriented;

internalField   nonuniform List<scalar> 
43645
(
0.39512386078613
-4.9876430029833e-06
0.39513956833974
-1.5707459207165e-05
0.3951667851923
-2.7216750466033e-05
0.39520601504407
-3.9229746352002e-05
0.39525758858008
-5.157343017641e-05
0.39532180452322
-6.4215838506414e-05
0.39539898545282
-7.718082705114e-05
0.39548953301386
-9.0547460967311e-05
0.39559398540942
-0.00010445229821563
0.39571303303724
-0.00011904753326293
0.39584744891089
-0.00013441578193408
0.39599797447975
-0.00015052547993729
0.39616518543261
-0.00016721086671231
0.39634942812957
-0.00018424261347795
0.39655076900197
-0.00020134079147608
0.39676905803859
-0.00021828895807359
0.39700390735244
-0.00023484923749728
0.39725484450722
-0.00025093708037895
0.39752119751508
-0.00026635293518908
0.39780238280343
-0.00028118521710153
0.39809754466451
-0.00029516179102293
0.39840617566369
-0.00030863092996594
0.39872719306077
-0.00032101732847579
0.39906037761761
-0.00033318448850454
0.39940416494772
-0.00034378726182415
0.39975903593327
-0.00035487091698734
0.40012235294211
-0.00036331693982019
0.40049626493084
-0.00037391191990562
0.40087571359244
-0.00037944859334353
-0.00039088984640754
0.40126660350884
0.37294713000492
-9.5627585268299e-06
0.37296160842114
-3.0185715313827e-05
0.37298695817323
-5.2566339511405e-05
0.3730236629026
-7.5934312978282e-05
0.37307202899864
-9.9939365656089e-05
0.37313233670567
-0.00012452338802728
0.37320489388998
-0.00014973785736026
0.37329008806447
-0.00017574148512447
0.37338844283691
-0.00020280692412067
0.37350063547408
-0.00023124002769997
0.37362742968872
-0.00026120985769489
0.3737695642148
-0.00029265987091533
0.37392762142475
-0.00032526794529476
0.37410196574721
-0.00035858680812127
0.37429269342364
-0.0003920683435038
0.37449969483789
-0.00042529025103538
0.37472263092403
-0.00045778520525274
0.37496108393474
-0.00048938997521835
0.37521444096431
-0.00051970985111644
0.37548217933056
-0.00054892347151246
0.37576350723225
-0.00057648958235047
0.37605797862578
-0.00060310221417974
0.37636457754066
-0.00062761613476747
0.3766831406007
-0.00065174744024816
0.37701217841505
-0.00067282496787442
0.3773522131737
-0.00069490556694808
0.37770071310651
-0.00071181676333437
0.37805983214202
-0.00073303084667781
0.37842471340543
-0.00074432975072204
-0.00076738850500009
0.3788012121738
0.3520153009403
-1.3966019471337e-05
0.35202920647954
-4.4091091093021e-05
0.35205342546613
-7.6785162016877e-05
0.3520884344317
-0.00011094311642335
0.35213452955543
-0.00014603433064586
0.35219196880141
-0.00018196247921385
0.35226103200843
-0.00021880091387452
0.35234208043665
-0.0002567897671782
0.35243561548518
-0.00029634183095988
0.3525422957966
-0.0003379202018502
0.35266287060165
-0.00038178452995366
0.35279807328654
-0.00042786242731144
0.35294849390838
-0.00047568844288564
0.35311452325626
-0.00052461603569249
0.35329630013938
-0.00057384511004933
0.35349377660398
-0.00062276660237492
0.35370668327215
-0.00067069176318228
0.35393468781581
-0.00071739441113011
0.3541772574794
-0.00076227940908322
0.35443396866407
-0.00080563455213566
0.35470410510853
-0.00084662592392489
0.35498733219662
-0.00088632920000224
0.35528268885236
-0.00092297268845411
0.35559014404145
-0.00095920252698099
0.35590821772618
-0.00099089854957406
0.35623760780743
-0.0010242955440307
0.35657569916998
-0.0010499080203254
0.35692490828062
-0.0010822398514925
0.35728010958108
-0.0010995309475464
-0.0011348315081607
0.35764755269266
0.33225824230941
-1.816422848321e-05
0.33227150571896
-5.7354351956987e-05
0.33229458852257
-9.986781639851e-05
0.33232793899498
-0.00014429344131518
0.33237182968937
-0.00018992488048389
0.33242649537397
-0.00023662802269532
0.33249219315963
-0.0002844985621695
0.33256926507337
-0.00033386154737181
0.33265819757398
-0.00038527420199071
0.33275963867197
-0.00043936117419663
0.33287433138069
-0.00049647711703047
0.33300301236976
-0.00055654329860366
0.33314628783627
-0.00061896379544795
0.33330458472281
-0.00068291281182465
0.33347809450637
-0.00074735478658608
0.33366684398153
-0.00081151597350795
0.33387064583326
-0.00087449351362656
0.33408927019918
-0.00093601867803245
0.33432227727293
-0.0009952863857534
0.33456936373909
-0.001052720922668
0.33482989859951
-0.0011071606898195
0.33510368603429
-0.0011601165408648
0.33538982119707
-0.0012091077575768
0.3356884450677
-0.0012578263037779
0.3359980715941
-0.0013005249816349
0.33631964176055
-0.0013458656152586
0.33665041448322
-0.0013806806466611
0.33699320192526
-0.0014250271972577
0.33734252971303
-0.0014488586413554
-0.0014976649845707
0.33770536328792
0.31361004298118
-2.214970513378e-05
0.31362263698948
-6.9948229103844e-05
0.31364456147937
-0.00012179217534583
0.31367624411363
-0.00017597594675752
0.31371793243079
-0.00023161307196307
0.3137698323252
-0.0002885277949601
0.31383217159459
-0.00034683771321109
0.31390526789255
-0.0004069577308333
0.31398959065577
-0.00046959685468658
0.3140857791149
-0.00053554952669755
0.31419457533666
-0.00060527323611585
0.31431672750845
-0.00067869537146183
0.31445286783689
-0.00075510402860962
0.31460347110252
-0.00083351598553105
0.31476879339118
-0.00091267698644323
0.31494895007589
-0.00099167257212868
0.31514384866838
-0.0010693920224193
0.31535337770908
-0.0011455476369384
0.31557720287917
-0.0012191114756034
0.31581516021483
-0.0012906781791168
0.31606671501355
-0.0013587154099926
0.31633183498951
-0.0014252364384377
0.31660967818847
-0.0014869508779471
0.31690059191653
-0.0015487399526183
0.31720307996553
-0.001603012950437
0.31751837720411
-0.001661162772311
0.31784359033484
-0.0017058936942832
0.31818200361649
-0.0017634403952878
0.31852772018874
-0.0017945751315394
-0.0018584676455054
0.31888852293664
0.29600846761435
-2.591534682572e-05
0.29602036066692
-8.1841163383601e-05
0.29604108067372
-0.00014251206424231
0.2960710323494
-0.00020592750646444
0.29611043507275
-0.00027101568207864
0.29615946168137
-0.00033755429335684
0.29621830649491
-0.00040568241978507
0.29628725997061
-0.00047591110282906
0.29636677351333
-0.00054911029711854
0.29645747834053
-0.00062625425696738
0.29656011762392
-0.0007079124259951
0.296675454678
-0.00079403233529933
0.29680415254266
-0.00088380180624746
0.29694674052005
-0.00097610387884062
0.29710354701122
-0.0010694833963292
0.29727478595474
-0.0011629114367971
0.29746046977157
-0.0012550757625782
0.2976606185665
-0.0013456963569819
0.29787501478499
-0.0014335076206748
0.29810365015305
-0.0015193134748358
0.29834609732539
-0.0016011625107353
0.29860250770947
-0.0016816467512918
0.29887211102255
-0.0017565541198614
0.29915548632765
-0.0018321151862936
0.2994511306969
-0.0018986572477171
0.29976060529084
-0.0019706372934823
0.30008085925374
-0.0020261475834026
0.30041569022941
-0.0020982712971966
0.30075876719741
-0.0021376520275485
-0.0022184355343512
0.30111873516257
0.27939476759447
-2.944832615312e-05
0.27940591442924
-9.2987898630119e-05
0.27942535353401
-0.00016195107018925
0.27945346395226
-0.00023403782777998
0.2794904337526
-0.00030798538804458
0.27953639950811
-0.00038351995723388
0.27959151914645
-0.00046080196945515
0.27965605336893
-0.00054044523958792
0.27973043298439
-0.00062348982993649
0.27981527866209
-0.00071109985502205
0.2799113329628
-0.00080396665012426
0.2800193738811
-0.00090207317989935
0.28014009617655
-0.0010045240308104
0.280274086456
-0.0011100940899844
0.2804217498637
-0.0012171467381194
0.2805834053543
-0.0013245668635631
0.28075917754973
-0.0014308478959921
0.28094922786587
-0.0015357466125739
0.28115346471444
-0.0016377444098395
0.28137204849733
-0.0017378971991347
0.28160466989405
-0.0018337838493293
0.28185168019547
-0.0019286569947404
0.28211239310433
-0.002017266970586
0.28238763817389
-0.0021073601972928
0.28267592032423
-0.0021869393387664
0.28297914601852
-0.0022738629275689
0.28329412792316
-0.0023411294266943
0.28362518805345
-0.0024293313659349
0.28396560573668
-0.0024780696504171
-0.002577695165791
0.2843248654327
0.26371349314652
-3.2731940377973e-05
0.26372383935631
-0.00010333402252309
0.26374190382763
-0.00018001545627277
0.26376803701122
-0.00026017092767618
0.26380239254634
-0.00034234084148658
0.26384506727924
-0.00042619461059456
0.26389617893469
-0.00051191354767057
0.26395595423625
-0.00060022046621127
0.26402479950952
-0.00069233503068053
0.2641033214816
-0.00078962175696911
0.26419225874959
-0.00089290385041267
0.26429240037603
-0.0010022147409871
0.26440447094824
-0.0011165945399628
0.26452911364311
-0.0012347367239374
0.26466681193961
-0.0013548449757144
0.2648179922855
-0.0014757471523541
0.26498289649463
-0.0015957520495945
0.26516183300863
-0.0017146830724188
0.26535484345409
-0.0018307548022372
0.26556226579222
-0.0019453194850923
0.26578391810269
-0.0020554361082159
0.26602036232868
-0.0021651011695804
0.26627101004117
-0.002267914632054
0.26653694999593
-0.0023733001010687
0.2668167202074
-0.0024667094989757
0.26711257291789
-0.0025697155864858
0.26742123098469
-0.0026497874413701
0.2677475173172
-0.0027556176466359
0.26808442008709
-0.002814972369873
-0.0029354378729151
0.26844216284801
0.24891230916922
-3.5748352700458e-05
0.24892179776663
-0.00011282255027425
0.24893838802097
-0.00019660564159213
0.24896239858765
-0.00028418142662759
0.24899394569903
-0.00037388788678412
0.24903308328602
-0.00046533213320078
0.24907988552028
-0.00055871571937069
0.24913454113837
-0.00065487602354804
0.24919742726816
-0.00075522110161407
0.24926913060483
-0.00086132503665561
0.24935038027235
-0.00097415346285526
0.24944197147623
-0.0010938058916214
0.24954465492703
-0.001219277939308
0.24965912573451
-0.0013492074816546
0.24978594533538
-0.0014816645283868
0.24992564491745
-0.0016154466876458
0.25007858720025
-0.0017486942868318
0.25024522616741
-0.0018813219951039
0.25042574383552
-0.0020112724266905
0.25062065696005
-0.0021402325666638
0.2508299200133
-0.0022646991189192
0.25105431023321
-0.0023894913472735
0.25129335163405
-0.0025069559907018
0.25154839164825
-0.0026283400730865
0.25181803633111
-0.0027363541393691
0.25210486213989
-0.0028565413525383
0.2524055739652
-0.0029504992234545
0.25272543160949
-0.0030754752480006
0.25305728385879
-0.0031468245773046
-0.0032900715620531
0.25341191759277
0.23494181949696
-3.8480234316879e-05
0.23495039586839
-0.00012139886413704
0.23496541598224
-0.00021162569835716
0.23498716354047
-0.00030592892870289
0.23501571486276
-0.00040243915406032
0.23505107852754
-0.00050069574411286
0.23509328238448
-0.00060091952366527
0.23514247340097
-0.0007040669886081
0.23519899448202
-0.00081174213253577
0.23526340567983
-0.00092573618561748
0.23533641951831
-0.0010471672538171
0.23541882897379
-0.0011762153009024
0.23551140515595
-0.0013118540765666
0.2356148885584
-0.001452690840458
0.23572991591857
-0.0015966918460842
0.23585711473931
-0.0017426454670524
0.23599697283956
-0.0018885523467085
0.23615007770703
-0.002034426823151
0.23631676480625
-0.0021779594871984
0.2364977146221
-0.0023211823445273
0.23669303522637
-0.0024600196856487
0.23690371071121
-0.0026001667950846
0.23712939011916
-0.0027326353618351
0.23737167631629
-0.0028706262337006
0.23762927767127
-0.0029939554578552
0.23790505042214
-0.0031323140670763
0.2381957881455
-0.0032412369103609
0.23850707551276
-0.0033867625794945
0.23883182396806
-0.0034715729979672
-0.0036393848525525
0.23918113729541
0.22175540187379
-4.0912274368199e-05
0.22176301832277
-0.00012901526762147
0.22177638411761
-0.00022499144803822
0.22179574536679
-0.00032529013335308
0.22182113676489
-0.00042783050836892
0.22185252001678
-0.00053207895293344
0.22188987458736
-0.000638274051917
0.22193330250594
-0.00074749486560465
0.2219831073078
-0.00086154689358369
0.2220398156241
-0.00098244446189967
0.22210411503525
-0.0011114666257597
0.22217678772615
-0.0012488879534502
0.22225861595476
-0.0013936822676272
0.22235037734274
-0.0015444521917554
0.2224527766516
-0.0016990911190165
0.22256653099685
-0.0018563997771931
0.22269224749409
-0.0020142688094979
0.22283063756472
-0.0021728168600636
0.22298219432988
-0.0023295162191328
0.22314774085916
-0.0024867288411897
0.2233275628771
-0.0026398416713013
0.22352281523875
-0.0027954191249213
0.22373330866545
-0.0029431287568828
0.22396087232237
-0.0030981898593415
0.22420434954268
-0.0032374326469067
0.22446683371924
-0.003394798212658
0.22474532055798
-0.0035197237180922
0.22504555214832
-0.0036869941395683
0.22536076803357
-0.0037867888539531
-0.003980682682387
0.22570206589449
0.20930905197115
-4.3032260578439e-05
0.20931567123509
-0.00013563449513641
0.20932731681963
-0.00023663699632919
0.20934419524155
-0.00034216851931685
0.20936629871009
-0.00044993394130875
0.20939354150121
-0.00055932170875696
0.20942585359767
-0.00067058611336855
0.2094632896197
-0.00078493085291226
0.20950610908099
-0.00090436632045937
0.2095547984426
-0.001031133789437
0.20961001182506
-0.0011666799745045
0.20967251125469
-0.0013113873497822
0.20974307985335
-0.0014642508334025
0.20982252286811
-0.001623895174141
0.20991160083508
-0.0017881690540458
0.21001111361111
-0.0019559125218578
0.21012177361728
-0.0021249287847466
0.2102444129565
-0.0022954561689651
0.21037966603513
-0.0024647692678415
0.21052849443761
-0.0026355572143514
0.21069135961304
-0.0028027068177348
0.21086955730665
-0.0029736167901234
0.21106310188169
-0.0031366733037533
0.21127397910418
-0.003309067054213
0.21150123985027
-0.0034646933655502
0.21174814150759
-0.0036416998430541
0.21201198785489
-0.0037835700386245
0.21229850638083
-0.0039735126396461
0.21260156792269
-0.0040898503709573
-0.004310975199319
0.21293186046583
0.19756123632868
-4.4832031884997e-05
0.19756683431145
-0.0001412324492468
0.19757671656794
-0.00024651922413949
0.19759104892121
-0.00035650084395932
0.19760978131187
-0.00046866630339772
0.19763278108949
-0.00058232145779164
0.19765992874151
-0.00069773373674369
0.19769122982778
-0.00081623191047827
0.19772689592278
-0.00094003238669101
0.19776736693427
-0.0010716047721261
0.19781325533543
-0.0012125683468391
0.19786529328993
-0.0013634252755415
0.1979242541732
-0.0015232116879805
0.19799095960946
-0.0016906005819217
0.19806621320347
-0.0018634226197291
0.19815088628198
-0.0020405855723897
0.19824578001701
-0.0022198224920424
0.19835184166162
-0.0024015177862984
0.19846982327784
-0.0025827508570888
0.19860082704077
-0.0027665609508575
0.19874546298587
-0.0029473427367116
0.19890516357616
-0.0031333173549102
0.19908015297023
-0.0033116626725788
0.19927251148881
-0.0035014255481868
0.1994815858464
-0.0036737676987508
0.19971066837839
-0.0038707823512785
0.19995751197164
-0.004030413608304
0.20022763960125
-0.0042436402466278
0.20051585913697
-0.0043780698849258
-0.004627112058877
0.20083199601939
0.18647275328238
-4.630792232124e-05
0.18647732051959
-0.00014579966330399
0.18648542200447
-0.00025462068567207
0.18649718257287
-0.00036826138884881
0.18651251087158
-0.00048399457841705
0.18653122885676
-0.00060103941903551
0.18655316861429
-0.00071967347004203
0.18657828608202
-0.00084134935364974
0.18660674195761
-0.00096848823740278
0.18663892408802
-0.0011037868773576
0.18667539563601
-0.0012490398693475
0.18671684966395
-0.0014048792778142
0.18676403883977
-0.0015704008379262
0.1868177895425
-0.0017443512587448
0.18687893448472
-0.0019245675359811
0.18694840304519
-0.0021100541070826
0.18702706858431
-0.0022984880054821
0.18711597872545
-0.0024904279021787
0.18721598620388
-0.0026827583104968
0.18732832028458
-0.0028788950071496
0.1874537200775
-0.0030727425055642
0.18759374279217
-0.0032733400462575
0.18774881038465
-0.0034667302421022
0.18792105950415
-0.0036736746455128
0.18811019040338
-0.0038628985761302
0.18831938938845
-0.0040799813152688
0.18854703902234
-0.0042580632213571
0.18879821509284
-0.0044948162972619
0.18906896918549
-0.0046488239584458
-0.0049259502736988
0.18936780742039
0.17600660192679
-4.7461071075395e-05
0.17601014432066
-0.0001493420379297
0.17601647409981
-0.00026095044526
0.17602567577136
-0.00037746304055614
0.17603761886963
-0.00049593765654503
0.17605208240445
-0.00061550293336576
0.17606885190843
-0.00073644295313072
0.17608783399574
-0.00086033141964417
0.17610913654367
-0.00098979076356776
0.1761330910358
-0.0011277413473034
0.17616020473363
-0.0012761535445198
0.17619112327643
-0.0014357977976036
0.17622656817355
-0.0016058457116474
0.17626735855264
-0.0017851416142403
0.17631434249313
-0.0019715514526473
0.17636849099331
-0.002164202583498
0.17643073510709
-0.0023607320954979
0.17650220038985
-0.002561893161557
0.1765838289993
-0.0027643868968091
0.17667694839674
-0.0029720143821233
0.17678242110833
-0.0031782151951353
0.1769018955003
-0.0033928144170863
0.17703599187444
-0.0036008265956159
0.17718685127003
-0.0038245340214449
0.17735457653085
-0.004030623817731
0.17754211336202
-0.0042675181280942
0.1777486447589
-0.0044645946001717
0.17797853870509
-0.0047247102262865
0.17822940844652
-0.0048996936832038
-0.0052045279328574
0.17850798612332
0.16612785814524
-4.8297220662045e-05
0.16613039655936
-0.00015188043518385
0.16613499001109
-0.00026554387978151
0.16614168370858
-0.00038415672057829
0.16615031089183
-0.00050456482207595
0.1661606110353
-0.00062580305883889
0.16617232621994
-0.00074815811947304
0.16618531519564
-0.00087332037671539
0.16619963200777
-0.0010041075567074
0.16621554835378
-0.0011436576739408
0.16623351005696
-0.0012941152278609
0.166254107898
-0.0014563956184168
0.16627802303311
-0.0016297608260634
0.16630605531452
-0.0018131738746623
0.16633905559532
-0.0020045517121426
0.16637801849943
-0.0022031654662772
0.16642391899247
-0.0024066325671703
0.16647793557873
-0.0026159097268348
0.16654108896495
-0.002827540262345
0.16661477020503
-0.0030456956023282
0.16669996465638
-0.0032634096272219
0.16679836004708
-0.0034912097896365
0.16691080025498
-0.003713266786126
0.16703934399675
-0.0039530777470384
0.16718456331918
-0.00417584312464
0.16734902797801
-0.0044319827724353
0.1675328551824
-0.0046484217903937
0.1677394686527
-0.0049313236831752
0.16796833920913
-0.0051285642263656
-0.0054601843832565
0.16822399567393
0.15680355824392
-4.8826760175441e-05
0.15680512762621
-0.00015344980185893
0.15680804403942
-0.00026846027720679
0.15681231559619
-0.00038842826157737
0.15681774259014
-0.00050999180032873
0.1568240290666
-0.00063208951968868
0.15683087744781
-0.00075500648517323
0.15683810090232
-0.00088054381577879
0.15684569994265
-0.0010117065815803
0.15685388449017
-0.00115184220592
0.15686303502422
-0.0013032657461161
0.15687368104077
-0.0014670416189113
0.15688645542062
-0.0016425351894512
0.1569021270757
-0.0018288455129924
0.15692153768885
-0.0020239623081769
0.15694568789284
-0.0022273156531005
0.15697558223173
-0.002436526888848
0.15701242768627
-0.0026527551645716
0.15705731234505
-0.0028724249047395
0.15711165210547
-0.003100035347317
0.15717656223662
-0.0033283197438017
0.1572536987851
-0.0035683463249546
0.15734417369526
-0.0038037416842349
0.15744986015712
-0.0040587641984038
0.15757186388139
-0.0042978468393813
0.15771226343343
-0.0045723823162022
0.15787220795721
-0.0048083663062587
0.15805395934342
-0.0051130750620314
0.15825909957782
-0.0053337044529464
-0.0056906588620562
0.15848957406585
0.14800258827332
-4.9064089110504e-05
0.14800323608543
-0.00015409759821392
0.14800455624288
-0.00026978041912455
0.14800652259577
-0.00039039459963652
0.14800890654525
-0.00051237573583492
0.14801138100357
-0.00063456396493183
0.14801361290899
-0.00075723837843498
0.14801537291364
-0.0008823038091338
0.14801660948716
-0.0010129431445093
0.14801746986147
-0.0011527025701542
0.14801826693655
-0.0013040628113454
0.14801946395187
-0.0014682386244302
0.14802163934629
-0.0016447105738767
0.14802552060642
-0.0018327267629199
0.14803192914319
-0.0020303708344417
0.14804185510999
-0.0022372416093411
0.14805631805582
-0.0024509898241033
0.14807653020014
-0.0026729672987859
0.14810363527526
-0.0028995299702982
0.1481390363871
-0.0031354364507682
0.14818398299183
-0.0033732663412967
0.14824003546359
-0.0036243987912897
0.14830859689374
-0.0038723031105087
0.14839128064966
-0.0041414479524869
0.14848975082284
-0.0043963170121451
0.14860551552071
-0.0046881470152204
0.14874083568888
-0.0049436864760735
0.14889661454429
-0.0052688539193364
0.14907674200463
-0.0055138319138597
-0.0058941677651509
0.14928025090897
0.13969557994135
-4.9026753802274e-05
0.13969536401135
-0.00015388164921332
0.13969518681375
-0.00026960320318952
0.13969499101402
-0.00039019878341086
0.13969452327447
-0.00051190798202639
0.13969343007454
-0.00063347075307605
0.13969134774084
-0.00075515603509465
0.13968800814762
-0.00087896420839225
0.13968331018293
-0.0010082451741007
0.13967733820266
-0.0011467305855749
0.13967033669851
-0.0012970613038148
0.13966269872755
-0.0014606006506242
0.13965494410058
-0.0016369559441998
0.13964774956964
-0.0018255322292474
0.13964190715751
-0.002024528419381
0.13963838117444
-0.0022337156233347
0.13963819245498
-0.0024508011017462
0.13964253827394
-0.0026773131153922
0.13965260138378
-0.0029095930785114
0.13966974860638
-0.0031525836731446
0.13969534261467
-0.0033988603509192
0.13973082947967
-0.00365988565989
0.1397778638026
-0.0039193374391857
0.13983779526743
-0.0042013794257213
0.13991279568669
-0.0044713174418731
0.14000377735316
-0.0047791286942336
0.14011413878325
-0.0050540479194738
0.14024332595103
-0.0053980411003635
0.14039762172439
-0.0056681276981199
-0.0060694648620686
0.14057291881284
0.13185481308708
-4.8735086604737e-05
0.13185379878857
-0.00015286732111068
0.13185223648442
-0.00026804086980584
0.13185004067578
-0.00038800294870632
0.13184693842752
-0.00050880571185004
0.13184255573509
-0.00062908804306499
0.13183650335102
-0.00074910363760636
0.13182847714039
-0.00087093798809409
0.13181832873049
-0.00099809675769474
0.1318060803647
-0.0011344822157568
0.13179190971503
-0.0012828906518686
0.13177613686001
-0.0014448277944304
0.13175922127003
-0.0016200403535618
0.13174177976153
-0.0018080907203005
0.13172456937726
-0.0020073180346235
0.1317085122908
-0.0022176585364664
0.13169462042195
-0.0024369092326491
0.13168405755183
-0.002666750245708
0.13167802397209
-0.0029035595001769
0.1316778457378
-0.0031524054420152
0.13168494214728
-0.0034059567656093
0.13170068954197
-0.0036756330626679
0.13172687106938
-0.0039455189776151
0.13176468451556
-0.004239192886433
0.1318166176424
-0.004523250586247
0.13188313492688
-0.004845645999121
0.13196853193587
-0.0051394449502367
0.13207103580306
-0.0055005449891832
0.13219911979002
-0.0057962117034563
-0.0062158378526666
0.13234549276555
0.12445412198162
-4.8210685658038e-05
0.12445238059644
-0.00015112588160908
0.12444955570517
-0.00026521592251831
0.12444553521726
-0.00038398240855968
0.12444003055403
-0.00050330100236263
0.12443265515026
-0.00062171259950084
0.12442300351358
-0.0007394519672874
0.12441073959886
-0.00085867404517673
0.12439566764881
-0.00098302478393065
0.12437774667959
-0.0011165612263161
0.12435709003303
-0.0012622339875545
0.12433394336544
-0.0014216811107148
0.12430870740005
-0.0015948043729314
0.12428192997911
-0.0017813132846014
0.12425433295538
-0.0019797209963089
0.12422677658363
-0.0021901021504145
0.12420026302348
-0.0024103956585896
0.12417589731336
-0.0026423845226493
0.12415488477231
-0.0028825469475839
0.1241385056505
-0.0031360263109561
0.12412816748663
-0.0033956185953121
0.1241252548764
-0.0036727204497972
0.12413148650698
-0.0039517506095988
0.12414816116032
-0.0042558675458735
0.12417766475081
-0.0045527541871922
0.12422057096719
-0.0048885522301487
0.124281160143
-0.0052000341432469
0.12435751636607
-0.0055769012298544
0.12445922587637
-0.0058979212279321
-0.0063334121227357
0.12457680013698
0.11746880778369
-4.7474611797375e-05
0.1174664106559
-0.00014872865468167
0.11746245203685
-0.00026125719976583
0.117456793671
-0.00037832394255461
0.11744913227931
-0.00049563951759794
0.11743907206092
-0.00061165229601078
0.11742620086225
-0.00072658069118351
0.11741016047373
-0.00084263358582976
0.11739071129576
-0.0009635755405527
0.11736774871602
-0.0010935985852452
0.11734132130551
-0.0012358065186528
0.11731159828667
-0.001391958035416
0.11727892472361
-0.0015621307546232
0.1172437725906
-0.0017461610970729
0.11720683184234
-0.0019427801940383
0.11716887824949
-0.002152148504161
0.11713091634469
-0.0023724337012272
0.11709395012204
-0.0026054182489205
0.1170592152214
-0.0028478119979839
0.11702789142909
-0.0031047024729015
0.11700138439074
-0.0033691115152434
0.11698107127668
-0.003652407299211
0.11696849673802
-0.0039391760400612
0.11696527231051
-0.0042526430938415
0.11697316084494
-0.0045606427033466
0.11699388059224
-0.0049092719653697
0.11702979247117
-0.0052359460147673
0.11708166388448
-0.005628772637805
0.1171553502279
-0.0059716075638091
-0.0064249143939368
0.11724685251384
0.11087556756365
-4.655714472085e-05
0.11087258600215
-0.0001457469326745
0.11086761690868
-0.00025628793894546
0.11086050203716
-0.00037120890714423
0.11085093779858
-0.00048607512281284
0.11083852368413
-0.00059923803414286
0.11082283367154
-0.00071089053937419
0.11080348492548
-0.00082328470754604
0.11078019985125
-0.00094029033956494
0.11075282107004
-0.0010662196813991
0.1107213346365
-0.001204319965331
0.11068583421862
-0.0013564574997676
0.1106466110529
-0.0015229074724282
0.11060406091143
-0.0017036108401386
0.11055884014734
-0.0018975593153327
0.11051162524693
-0.0021049334902013
0.11046343676556
-0.0023242451077846
0.11041512596189
-0.0025571073354634
0.11036802482428
-0.0028007107538621
0.11032307286017
-0.003059750406955
0.11028186366234
-0.0033279022215402
0.11024547067689
-0.0036160142251638
0.1102155998858
-0.0039093051683431
0.11019378520897
-0.0042308283449941
0.11018129975072
-0.0045481571818657
0.11018145407861
-0.0049094262392303
0.11019299475009
-0.0052474866401288
0.1102244458364
-0.0056602236832444
0.11026526867857
-0.0060124303653515
-0.0064960606122055
0.11033641494666
0.10465242274937
-4.551373158894e-05
0.10464895882506
-0.00014228278294549
0.10464309888594
-0.00025042777010235
0.10463467957823
-0.00036278937400321
0.10462342794712
-0.00047482327409104
0.10460897800357
-0.00058478788141332
0.1045908895584
-0.00069280189275099
0.10456873110353
-0.00080112605740361
0.10454217507741
-0.00091373412293876
0.10451100906741
-0.0010350534842017
0.10447515840183
-0.0011684691149601
0.10443465563012
-0.0013159545448901
0.10438974659542
-0.0014779982558554
0.10434076254679
-0.0016546266107583
0.10428831458965
-0.0018451111786665
0.10423298516989
-0.0020496038925406
0.1041758032631
-0.0022670630253655
0.10411744849983
-0.0024987524000452
0.10405939434772
-0.0027426564345584
0.10400219076993
-0.0030025466689843
0.10394790009251
-0.0032736113926858
0.10389673006518
-0.0035648440568914
0.10385150210391
-0.0038640770772205
0.10381211789939
-0.0041914440222782
0.10378168166693
-0.004517720843452
0.10376151875604
-0.0048892632354223
0.10375102237769
-0.0052369901811836
0.10376345021036
-0.0056726514444281
0.10377487499352
-0.0060238550808601
-0.0065476965549963
0.10382651101696
0.098778580634094
-4.4375853668367e-05
0.098774773210194
-0.00013847509158762
0.09876815035804
-0.00024380464896055
0.098758597429256
-0.00035323618099307
0.098745846120741
-0.00046207170819423
0.098729619469762
-0.00056856098001712
0.098709478412491
-0.00067266059081898
0.098684940417585
-0.0007765878221146
0.098655666887891
-0.00088446035559117
0.098621361688973
-0.0010007480493021
0.098581863477036
-0.0011289706679338
0.098537152793212
-0.0012712436265688
0.09848743881328
-0.0014282840419189
0.098432995337957
-0.0016001829020948
0.098374373308703
-0.0017864889171221
0.098312089807276
-0.0019873201605328
0.098247130835336
-0.0022021038257315
0.098180060155955
-0.0024316814976205
0.098112401499494
-0.0026749975622308
0.098044400079828
-0.0029345450435557
0.097978523125434
-0.0032077342454689
0.097914001986531
-0.0035003227400178
0.097855208588181
-0.0038052835165988
0.097799144005417
-0.004135379293425
0.097753821381519
-0.0044723980903693
0.097711958556275
-0.0048474002994813
0.097686470503174
-0.005211502034826
0.097665951205941
-0.0056521320662463
0.097657035098614
-0.0060149388954609
0.097726339308505
-0.0066170006725822
0.39671361031063
0.0045529932691309
0.39231899006648
0.0043946203139099
0.38808721258886
0.0042317775473878
0.38402265067044
0.0040645619889181
0.38012952962214
0.0038931211198765
0.37641192228407
0.003717607410912
0.37287373288
0.0035381894782062
0.36951868038747
0.0033550525679353
0.36635028845263
0.0031683920113838
0.36337188317173
0.0029784053584992
0.36058659807566
0.0027852851745222
0.35799738299927
0.0025892151555493
0.3556070122529
0.0023903708260245
0.3534180876962
0.0021889246366782
0.35143303390718
0.0019850538690856
0.34965408565385
0.0017789483332916
0.34808327050096
0.0015708152325031
0.34672239221269
0.0013608783673732
0.34557302119235
0.0011493710987084
0.34463649898904
0.00093652228080108
0.34391395774675
0.00072254131870968
0.34340635274594
0.00050760507610285
0.34311448692284
0.00029186589710633
0.34303893044405
7.5556551498844e-05
0.34318088615648
-0.00014195564109006
0.3435411283599
-0.00036024213341504
0.34412020133795
-0.00057907290941568
0.34491871472576
-0.00079851332044094
0.34593714275128
-0.0010184279594511
0.34717571403967
-0.0012385712234872
0.34863432598765
-0.0014586118842506