/*--------------------------------*- C++ -*----------------------------------*\
| =========                 |                                                 |
| \\      /  F ield         | OpenFOAM: The Open Source CFD Toolbox           |
|  \\    /   O peration     | Version:  2112                                  |
|   \\  /    A nd           | Website:  www.openfoam.com                      |
|    \\/     M anipulation  |                                                 |
\*---------------------------------------------------------------------------*/
FoamFile
{
    version     2.0;
    format      ascii;
    arch        "LSB;label=32;scalar=64";
    class       volVectorField;
    location    "5.8";
    object      U;
}
// * * * * * * * * * * * * * * * * * * * * * * * * * * * * * * * * * * * * * //

dimensions      [0 1 -1 0 0 0 0];

internalField   nonuniform List<vector> 
22000
(
(1.0000009354359 -2.5878908062199e-05 0)
(1.0000271836851 -8.1597619051549e-05 0)
(1.0000804357539 -0.00014175137507382 0)
(1.0001634879051 -0.00020450450065163 0)
(1.0002777453475 -0.00026896250997823 0)
(1.0004239415917 -0.00033498825738991 0)
(1.0006027061942 -0.00040272057688794 0)
(1.0008147998681 -0.00047256288642722 0)
(1.0010612760107 -0.00054520080984956 0)
(1.0013436576224 -0.00062139729990552 0)
(1.0016638695731 -0.00070155618439414 0)
(1.0020239728822 -0.00078549614520569 0)
(1.0024257129705 -0.00087234767850895 0)
(1.0028703171261 -0.00096092005537051 0)
(1.0033582524796 -0.0010497622899772 0)
(1.0038894434629 -0.0011377581119434 0)
(1.0044630875562 -0.0012236752101 0)
(1.0050781970392 -0.0013070860745751 0)
(1.0057331116328 -0.0013869502723895 0)
(1.0064264876116 -0.0014637451309128 0)
(1.0071561127629 -0.0015360358452763 0)
(1.0079207773109 -0.001605672047763 0)
(1.0087177409138 -0.0016696073567153 0)
(1.00954634825 -0.0017324312872872 0)
(1.0104029958264 -0.0017870003957271 0)
(1.0112881254122 -0.0018442080422588 0)
(1.0121965723503 -0.0018874377453098 0)
(1.0131309400796 -0.0019422476750452 0)
(1.0140833553659 -0.0019700970920025 0)
(1.0150605321109 -0.0020300321457728 0)
(1.0000003575255 -7.5796765027097e-05 0)
(1.0000260348662 -0.00023919777287689 0)
(1.0000786753473 -0.00041587046433455 0)
(1.0001609821887 -0.00060030277660726 0)
(1.0002743813616 -0.00078976811123837 0)
(1.0004197000835 -0.00098381403522848 0)
(1.0005976240947 -0.0011828417540871 0)
(1.0008089390215 -0.001388077356178 0)
(1.0010547112736 -0.0016016228883617 0)
(1.0013365278804 -0.0018258303095839 0)
(1.0016563749784 -0.0020619832100706 0)
(1.0020164419011 -0.0023096021634579 0)
(1.002418531852 -0.0025661382647467 0)
(1.0028640457008 -0.0028280594230586 0)
(1.0033534390431 -0.0030910568882586 0)
(1.0038868863971 -0.0033517945060999 0)
(1.0044634206931 -0.0036066141501223 0)
(1.0050824900094 -0.0038542056285677 0)
(1.0057419642117 -0.0040915094072484 0)
(1.0064413522179 -0.0043198672917392 0)
(1.0071773555141 -0.0045351228582093 0)
(1.0079504873839 -0.0047425879919605 0)
(1.008755679354 -0.0049334866437857 0)
(1.0095957501374 -0.0051209869002295 0)
(1.0104622902297 -0.0052845880422343 0)
(1.0113627130683 -0.0054554665409858 0)
(1.0122821413871 -0.0055861483015569 0)
(1.0132371538115 -0.0057495514270257 0)
(1.0142005518432 -0.0058360713226143 0)
(1.0152069243094 -0.0060135259846056 0)
(1.0000003834072 -0.00012276717242585 0)
(1.0000264493987 -0.00038762904487203 0)
(1.000079822408 -0.00067439576499092 0)
(1.0001631404013 -0.00097394731311333 0)
(1.0002777671993 -0.0012817129813457 0)
(1.0004244964467 -0.0015968857778706 0)
(1.000603982472 -0.0019201104539931 0)
(1.0008170121912 -0.002253449786099 0)
(1.0010646586449 -0.0026004521210388 0)
(1.0013485758215 -0.0029650985039983 0)
(1.0016707841465 -0.00334960459547 0)
(1.0020336091222 -0.0037532808175047 0)
(1.0024388836749 -0.0041720122087917 0)
(1.0028882507468 -0.004600076727066 0)
(1.0033821245419 -0.0050304403032347 0)
(1.0039210978158 -0.0054576979676786 0)
(1.0045039492868 -0.0058758336281235 0)
(1.00513089317 -0.006282775192471 0)
(1.0057990549208 -0.00667340960872 0)
(1.0065094283417 -0.007050085999907 0)
(1.0072569303519 -0.007405755811224 0)
(1.0080450369762 -0.0077494617184626 0)
(1.0088647694054 -0.0080662774229891 0)
(1.0097249093004 -0.0083785333561288 0)
(1.0106088305322 -0.0086514502740818 0)
(1.0115360057007 -0.0089377686482476 0)
(1.0124746091061 -0.0091572184171786 0)
(1.0134657964291 -0.0094328086503401 0)
(1.0144477657809 -0.0095798848311113 0)
(1.0155055119149 -0.0098806593165298 0)
(1.0000003998374 -0.00016753979479822 0)
(1.0000266989832 -0.00052901539995623 0)
(1.0000805934566 -0.00092073302751329 0)
(1.0001647378707 -0.0013300470722358 0)
(1.0002804494672 -0.0017505617863176 0)
(1.0004284727106 -0.0021810955923316 0)
(1.000609416068 -0.0026225260907355 0)
(1.0008240737352 -0.0030777703376562 0)
(1.0010735313433 -0.0035518404554765 0)
(1.0013595391477 -0.0040503585346012 0)
(1.0016841656081 -0.0045764907015998 0)
(1.0020499266559 -0.0051294179163518 0)
(1.0024586848392 -0.0057035903310328 0)
(1.0029124126651 -0.0062913059733009 0)
(1.003411447828 -0.0068829899287532 0)
(1.0039569703505 -0.0074713999928923 0)
(1.0045473884872 -0.0080482556635178 0)
(1.0051840101586 -0.0086109252973791 0)
(1.0058629022308 -0.0091521714803714 0)
(1.0065871778058 -0.0096756016078521 0)
(1.0073492318706 -0.010170966532255 0)
(1.0081567457406 -0.010651516714417 0)
(1.0089952391964 -0.011095438999585 0)
(1.0098818970688 -0.011535257171904 0)
(1.0107886071918 -0.011920318826573 0)
(1.0117517084584 -0.012327147114461 0)
(1.0127158555723 -0.01263933856475 0)
(1.0137563207988 -0.013034625753903 0)
(1.0147636621614 -0.013246492773473 0)
(1.0158922380334 -0.013680959516165 0)
(1.0000004180049 -0.00021010514607121 0)
(1.0000268425086 -0.00066337633111126 0)
(1.0000810614997 -0.0011549978084011 0)
(1.0001657698073 -0.001668800982222 0)
(1.0002822571179 -0.0021965300078907 0)
(1.0004312187055 -0.0027365877157354 0)
(1.0006131890686 -0.0032900794164912 0)
(1.0008289407357 -0.0038608284752962 0)
(1.0010795452567 -0.0044553856579185 0)
(1.0013668577659 -0.0050810945386247 0)
(1.0016929983857 -0.0057421484744021 0)
(1.002060725467 -0.0064377227472552 0)
(1.0024719385707 -0.0071609797438644 0)
(1.002929037721 -0.0079024561506874 0)
(1.003432265823 -0.0086502064768197 0)
(1.003983566167 -0.0093953876814687 0)
(1.0045808803003 -0.010127520151057 0)
(1.0052269297313 -0.010843639322384 0)
(1.0059164432372 -0.011534260675442 0)
(1.0066552512142 -0.012204569674667 0)
(1.0074325699285 -0.012840700928442 0)
(1.0082614223583 -0.013460750138107 0)
(1.0091204350717 -0.014035043216381 0)
(1.010037357255 -0.014607670199648 0)
(1.0109697921165 -0.015110005011943 0)
(1.0119750458446 -0.015645290367476 0)
(1.0129687827297 -0.01605663909034 0)
(1.0140682107842 -0.016582609599138 0)
(1.0151057200656 -0.016866052320185 0)
(1.0163199522151 -0.017449061016867 0)
(1.0000004384506 -0.00025039710082509 0)
(1.0000268495627 -0.00079050055533799 0)
(1.0000811163702 -0.0013768600001071 0)
(1.0001659732247 -0.00198976522838 0)
(1.0002826724537 -0.0026190486603724 0)
(1.0004318420152 -0.0032626533192246 0)
(1.0006139141944 -0.0039219121360441 0)
(1.0008296225776 -0.0046016176113545 0)
(1.0010800092989 -0.005309946856107 0)
(1.0013670450123 -0.0060560596475735 0)
(1.0016928985915 -0.0068452636211072 0)
(1.002060610067 -0.0076768642610236 0)
(1.0024721129366 -0.0085428909985195 0)
(1.0029303205187 -0.0094323546297725 0)
(1.0034353599059 -0.010331117070569 0)
(1.003990102621 -0.011228995371806 0)
(1.004591937663 -0.012113374316463 0)
(1.0052453024382 -0.012981218573293 0)
(1.0059433443471 -0.013820649262446 0)
(1.0066951623321 -0.01463881205328 0)
(1.0074862285042 -0.015417743244418 0)
(1.0083359147468 -0.016181140429236 0)
(1.0092147851223 -0.016890345170487 0)
(1.0101629758348 -0.01760261773684 0)
(1.011121550976 -0.018228948957896 0)
(1.0121720580441 -0.018902676964228 0)
(1.0131969868769 -0.01942149479578 0)
(1.0143613486333 -0.020091676248601 0)
(1.0154318358428 -0.020455632996717 0)
(1.0167418134292 -0.021205084507615 0)
(1.0000004596973 -0.00028831317762918 0)
(1.0000266616404 -0.00091005326449464 0)
(1.0000805798852 -0.0015857419352856 0)
(1.0001649743543 -0.0022920998942059 0)
(1.0002810403916 -0.0030169863976304 0)
(1.0004293184832 -0.0037578316997995 0)
(1.0006101144183 -0.0045161915117182 0)
(1.0008241070952 -0.0052978929032903 0)
(1.0010722897706 -0.0061128355465204 0)
(1.0013567497292 -0.0069721030686206 0)
(1.0016796912506 -0.0078822175914455 0)
(1.0020444621499 -0.0088427674757765 0)
(1.0024530170578 -0.0098448193708154 0)
(1.0029088556187 -0.010876115435299 0)
(1.0034119668055 -0.011920518138401 0)
(1.0039663029698 -0.012966790609191 0)
(1.0045686270585 -0.014000251086908 0)
(1.0052253703778 -0.015018086057524 0)
(1.0059278958984 -0.016005862198712 0)
(1.0066890605333 -0.016973114020523 0)
(1.0074901359281 -0.017897257029322 0)
(1.0083576897559 -0.0188084248739 0)
(1.0092533256546 -0.019657768829762 0)
(1.0102309954321 -0.020517449536814 0)
(1.0112136142571 -0.021275521455323 0)
(1.0123092910394 -0.022098980499349 0)
(1.0133646635615 -0.022734965130928 0)
(1.0145961889711 -0.023564556100985 0)
(1.0157007398625 -0.024019795521668 0)
(1.0171118002782 -0.024955523601194 0)
(1.0000004808346 -0.00032370855503395 0)
(1.0000262226754 -0.0010215616736721 0)
(1.0000792857192 -0.0017808072821031 0)
(1.0001624329576 -0.0025745692840544 0)
(1.0002767785798 -0.0033886692929138 0)
(1.0004227523053 -0.004219968653195 0)
(1.0006005052899 -0.0050702409520876 0)
(1.0008106396759 -0.0059464157504081 0)
(1.0010540735522 -0.006860214961606 0)
(1.0013330024765 -0.0078247571690452 0)
(1.0016496463107 -0.0088478852435195 0)
(1.0020076769224 -0.0099296329663559 0)
(1.0024090535026 -0.01106028895495 0)
(1.0028579203683 -0.012226600253898 0)
(1.0033541061831 -0.013410641035646 0)
(1.0039027765977 -0.014600423813278 0)
(1.0045000113869 -0.015779282801256 0)
(1.0051544801352 -0.016944940232146 0)
(1.0058556081515 -0.018080249749222 0)
(1.0066204192711 -0.019197594201293 0)
(1.0074256581544 -0.020269235752823 0)
(1.0083057358458 -0.021332613467562 0)
(1.0092127162108 -0.022327478126098 0)
(1.010215311841 -0.023342632076841 0)
(1.0112174272193 -0.0242406909734 0)
(1.0123549453801 -0.02522578526253 0)
(1.0134376709023 -0.025989592391385 0)
(1.0147346383382 -0.026994695246355 0)
(1.0158725689804 -0.027553623907449 0)
(1.0173849073162 -0.028696476898245 0)
(1.0000005005229 -0.00035641175733169 0)
(1.0000254871837 -0.0011244711400214 0)
(1.0000770950089 -0.0019610721545475 0)
(1.0001580613412 -0.0028357215273732 0)
(1.0002693924806 -0.0037321422077872 0)
(1.0004113798439 -0.0046465696334005 0)
(1.0005839906693 -0.0055809897807051 0)
(1.0007877240941 -0.0065434978739865 0)
(1.0010233952775 -0.0075477340385974 0)
(1.0012932879308 -0.0086089555561196 0)
(1.0015996119978 -0.0097364342831629 0)
(1.0019463600088 -0.010930813139907 0)
(1.0023354817326 -0.012181805259285 0)
(1.0027717993876 -0.01347544257683 0)
(1.003254976942 -0.01479225251523 0)
(1.003791482768 -0.016119798262873 0)
(1.004376693857 -0.017439548843063 0)
(1.0050216931765 -0.018750068996749 0)
(1.0057138909076 -0.020031372329672 0)
(1.0064747694939 -0.021299153577599 0)
(1.0072763802714 -0.022520010862603 0)
(1.0081613767425 -0.023739554805334 0)
(1.0090720794759 -0.024884994773991 0)
(1.0100923453756 -0.026063400436731 0)
(1.0111070564805 -0.02710972591542 0)
(1.0122798368197 -0.028268289713445 0)
(1.0133845370438 -0.029171113100713 0)
(1.0147411696468 -0.030367921667494 0)
(1.0159100089108 -0.031044330575099 0)
(1.0175184297765 -0.032415066690816 0)
(1.0000005181847 -0.00038624599540699 0)
(1.0000244174757 -0.0012182157009212 0)
(1.0000738951977 -0.0021255306216915 0)
(1.0001516285144 -0.0030740733282051 0)
(1.0002584870569 -0.0040454140388194 0)
(1.0003945945142 -0.0050351051850448 0)
(1.0005597065234 -0.0060453376226692 0)
(1.000754186774 -0.0070854254115197 0)
(1.0009787226887 -0.0081710141223834 0)
(1.0012356491768 -0.0093195880011693 0)
(1.0015271480303 -0.01054195650934 0)
(1.0018574917898 -0.011839527081228 0)
(1.0022286316175 -0.013201661935199 0)
(1.0026460327498 -0.014613947109473 0)
(1.0031092610486 -0.016055654918117 0)
(1.0036260552326 -0.017514158771061 0)
(1.0041912111172 -0.018969275316689 0)
(1.0048182011905 -0.020420622940772 0)
(1.0054925571431 -0.021845388278665 0)
(1.0062402519529 -0.0232629219394 0)
(1.0070287467197 -0.02463377974599 0)
(1.0079090117428 -0.026012524791433 0)
(1.0088138311457 -0.027312818184471 0)
(1.0098419706257 -0.028661421653868 0)
(1.0108602055952 -0.029863869867367 0)
(1.0120584967812 -0.031206970165727 0)
(1.0131775847686 -0.032260120044744 0)
(1.0145840578354 -0.033664082837663 0)
(1.0157795936886 -0.034472867905315 0)
(1.017473423696 -0.036091077826066 0)
(1.0000005323242 -0.00041304630418007 0)
(1.0000229873196 -0.0013022722453344 0)
(1.0000696067476 -0.0022732513426402 0)
(1.0001429701229 -0.0032882522238741 0)
(1.0002437831651 -0.0043266474350124 0)
(1.0003719709755 -0.005383251268677 0)
(1.0005270530413 -0.0064604473087059 0)
(1.0007092193508 -0.0075688108889428 0)
(1.0009190096306 -0.0087260633668832 0)
(1.0011587539212 -0.0099519867625495 0)
(1.0014306007446 -0.011259027936159 0)
(1.0017390186813 -0.012649505078639 0)
(1.0020860110934 -0.01411266871288 0)
(1.0024775593554 -0.015633911472742 0)
(1.0029133036042 -0.017191595697865 0)
(1.0034020296161 -0.01877308918086 0)
(1.0039383220451 -0.020356928546774 0)
(1.0045376419583 -0.021943763032272 0)
(1.0051842530747 -0.023508336769199 0)
(1.0059080318624 -0.025073542056946 0)
(1.0066726239202 -0.026594046833166 0)
(1.0075366788535 -0.028133701980245 0)
(1.0084242891491 -0.029591929780611 0)
(1.0094482754005 -0.031116464195032 0)
(1.0104589623641 -0.032481988124404 0)
(1.0116700114884 -0.034019222006433 0)
(1.0127939290999 -0.035233853888504 0)
(1.014236430095 -0.036858798699792 0)
(1.0154526048555 -0.037815559106303 0)
(1.0172157561234 -0.039698543789909 0)
(1.0000005425138 -0.00043667312363912 0)
(1.000021180909 -0.0013762045504713 0)
(1.0000641840926 -0.0024034552366576 0)
(1.0001319948518 -0.0034771106421704 0)
(1.0002251268242 -0.004574312063972 0)
(1.0003432796709 -0.0056890835834029 0)
(1.0004857112949 -0.0068239832570981 0)
(1.0006524038186 -0.0079908777230223 0)
(1.0008437197654 -0.0092096113124348 0)
(1.0010619363732 -0.010502317099972 0)
(1.0013091358286 -0.011883158092747 0)
(1.0015899244898 -0.013355510021704 0)
(1.0019063433573 -0.014908732593198 0)
(1.002264834462 -0.016528308024224 0)
(1.00266515011 -0.018191985366441 0)
(1.0031170454285 -0.01988739529235 0)
(1.0036150511257 -0.021592060783662 0)
(1.0041764030669 -0.023307765400401 0)
(1.0047845428476 -0.02500713411529 0)
(1.0054726483133 -0.026716407912322 0)
(1.0062015739085 -0.02838491548363 0)
(1.0070363612818 -0.030085365665432 0)
(1.0078942576995 -0.031703377588432 0)
(1.0088999630022 -0.03340778771795 0)
(1.0098904169049 -0.034941925662283 0)
(1.011098856507 -0.036681127801606 0)
(1.0122161795933 -0.038067733457264 0)
(1.0136772651325 -0.03992482472789 0)
(1.0149063174778 -0.041045634579453 0)
(1.0167177340127 -0.043207518650214 0)
(1.0000005473264 -0.00045702301249005 0)
(1.0000189955592 -0.0014396957846014 0)
(1.000057619068 -0.0025155739405129 0)
(1.0001186850078 -0.0036398115898854 0)
(1.0002024899449 -0.0047872984723155 0)
(1.000308485142 -0.005951219752924 0)
(1.0004356428583 -0.0071342845774589 0)
(1.0005837072681 -0.0083496648171451 0)
(1.0007528284623 -0.009619351940694 0)
(1.0009451859049 -0.010967858056115 0)
(1.0011627472306 -0.012411123887049 0)
(1.0014102045985 -0.013953713887639 0)
(1.0016895928061 -0.015585313859909 0)
(1.0020077761611 -0.017291770941985 0)
(1.0023646014606 -0.019050510443953 0)
(1.0027707646532 -0.020849712807141 0)
(1.0032207845206 -0.022666094786538 0)
(1.0037335806433 -0.024502800913577 0)
(1.0042920093445 -0.026330451872937 0)
(1.0049321490665 -0.028178749796904 0)
(1.0056128778075 -0.029991937485823 0)
(1.0064043682856 -0.031851261365489 0)
(1.0072190967605 -0.033629412615971 0)
(1.0081907667484 -0.035515253366757 0)
(1.0091471271985 -0.0372222452028 0)
(1.010335294277 -0.039168829529844 0)
(1.0114330775126 -0.040736543201967 0)
(1.0128920604549 -0.042833967878956 0)
(1.0141245971818 -0.044135203023113 0)
(1.0159587569093 -0.04658568433494 0)
(1.0000005467234 -0.00047403586716395 0)
(1.0000164388852 -0.0014925712748609 0)
(1.000049937128 -0.0026092888825261 0)
(1.0001030952642 -0.0037758855631165 0)
(1.0001759687428 -0.0049649934464756 0)
(1.0002677417891 -0.0061689134641383 0)
(1.0003770805712 -0.0073904771381627 0)
(1.0005034644928 -0.0086441579783735 0)
(1.0006467964527 -0.0099540947827104 0)
(1.0008091116766 -0.011347180356787 0)
(1.0009922112063 -0.012841174247631 0)
(1.0012008131056 -0.014441944601602 0)
(1.0014368988748 -0.016139705824994 0)
(1.0017076956851 -0.017920939447466 0)
(1.0020131334492 -0.019763013608478 0)
(1.0023647761259 -0.021654963407611 0)
(1.0027571943423 -0.023572849211297 0)
(1.0032108420158 -0.025521492668967 0)
(1.0037082223367 -0.027469466590824 0)
(1.0042879287125 -0.029450293644326 0)
(1.0049075335043 -0.031403054446495 0)
(1.0056412543511 -0.033417585256199 0)
(1.0063986696471 -0.035354319642945 0)
(1.0073195383115 -0.037420802577656 0)
(1.0082270988948 -0.03930333109913 0)
(1.0093755180877 -0.041459585243228 0)
(1.0104396449737 -0.043216273836 0)
(1.0118732677123 -0.045558689225295 0)
(1.0130983774785 -0.047056282472131 0)
(1.0149261223532 -0.049799866225063 0)
(1.0000005395434 -0.00048769896041321 0)
(1.0000135307486 -0.0015348093131538 0)
(1.0000411973878 -0.0026845515279826 0)
(1.0000853446846 -0.0038852593570285 0)
(1.0001457699481 -0.0051073152559215 0)
(1.0002213756588 -0.0063420959693709 0)
(1.0003105053821 -0.0075925224205219 0)
(1.0004123489688 -0.008874349054074 0)
(1.0005265289051 -0.010213836680762 0)
(1.0006548876333 -0.011640233517911 0)
(1.0007990096058 -0.013173134953592 0)
(1.0009635695848 -0.014819811206542 0)
(1.0011504527299 -0.016571186470296 0)
(1.0013671654874 -0.018414638062661 0)
(1.0016137195441 -0.02032771801491 0)
(1.0019024313137 -0.022300614649635 0)
(1.0022280023032 -0.024308875738466 0)
(1.0026122224355 -0.026359271954842 0)
(1.0030374736749 -0.028418367117211 0)
(1.0035444511383 -0.030523711391168 0)
(1.0040900583951 -0.032609341118608 0)
(1.0047514548024 -0.03477354486832 0)
(1.005437207731 -0.036865344118407 0)
(1.0062899954774 -0.039109365096254 0)
(1.0071336028057 -0.041168207274742 0)
(1.0082216035338 -0.043533126013218 0)
(1.0092371874669 -0.04548528200967 0)
(1.0106203256795 -0.048073175598964 0)
(1.011825627393 -0.049782217484552 0)
(1.0136152956562 -0.052817824896501 0)
(1.0000005261676 -0.00049804839737033 0)
(1.0000102986338 -0.0015665432959402 0)
(1.0000314858152 -0.0027415838432494 0)
(1.0000656125301 -0.003968256584018 0)
(1.0001122003261 -0.0052147167444097 0)
(1.0001698605017 -0.0064713790365429 0)
(1.0002366060846 -0.0077412141535467 0)
(1.0003113176207 -0.0090412214766162 0)
(1.0003933072921 -0.010399736538221 0)
(1.000484173351 -0.011848314686636 0)
(1.0005852342723 -0.013408380340576 0)
(1.0007010452199 -0.015088684571842 0)
(1.0008333530242 -0.016881019782616 0)
(1.0009898474669 -0.018773896479745 0)
(1.00117061836 -0.020745281352514 0)
(1.0013885992349 -0.022786765516944 0)
(1.0016386999872 -0.024873574010796 0)
(1.0019438006033 -0.027014578515091 0)
(1.0022864438245 -0.029174529009256 0)
(1.0027088484457 -0.031394978666147 0)
(1.0031681127844 -0.033605321643214 0)
(1.0037428308765 -0.035911788918966 0)
(1.0043429088547 -0.038153360403753 0)
(1.0051102378965 -0.040569337153846 0)
(1.0058747329992 -0.042803400211362 0)
(1.0068811277814 -0.04537269659909 0)
(1.0078328718963 -0.047525136577605 0)
(1.0091393574106 -0.050354631464488 0)
(1.0103111210449 -0.052289136601599 0)
(1.0120297809456 -0.055609858650175 0)
(1.0000005063856 -0.00050516553206742 0)
(1.0000067800533 -0.0015880607969051 0)
(1.0000209149161 -0.0027808772712562 0)
(1.0000441239299 -0.0040255821007063 0)
(1.0000756406255 -0.0052881493738216 0)
(1.0001137848349 -0.0065580070853952 0)
(1.0001562360959 -0.0078381329849991 0)
(1.0002015475148 -0.0091467147022748 0)
(1.0002486956648 -0.010514086087719 0)
(1.0002989865838 -0.01197403444768 0)
(1.0003534267946 -0.013549785950833 0)
(1.0004163736482 -0.015251631099515 0)
(1.0004893911862 -0.017072374679387 0)
(1.000580248838 -0.01900186293734 0)
(1.0006891065939 -0.021018705914939 0)
(1.0008293547687 -0.023116084361389 0)
(1.0009962123674 -0.025269131514109 0)
(1.0012133084395 -0.027488861378599 0)
(1.0014637633719 -0.029738539504656 0)
(1.0017904691551 -0.032063448934251 0)
(1.0021519310846 -0.034389140893188 0)
(1.0026261666391 -0.036828599446546 0)
(1.0031272888118 -0.039213178983269 0)
(1.0037921119818 -0.041792982142634 0)
(1.0044627729127 -0.044199406357631 0)
(1.0053664273261 -0.046965655251264 0)
(1.0062389418227 -0.04932131275425 0)
(1.007442638986 -0.052384334560526 0)
(1.0085658901706 -0.054556945484935 0)
(1.0101805633635 -0.058150216540549 0)
(1.0000004806335 -0.00050917908668163 0)
(1.0000030189233 -0.0015997745844873 0)
(1.0000096153747 -0.0028031399974467 0)
(1.0000211376478 -0.0040582848505623 0)
(1.0000365351525 -0.005329040198453 0)
(1.0000538364236 -0.0066038184333683 0)
(1.0000703857528 -0.0078855606298059 0)
(1.0000843957466 -0.0091935803771376 0)
(1.0000944882107 -0.010560122656474 0)
(1.0001016316876 -0.012021109748519 0)
(1.0001064772573 -0.013601521908409 0)
(1.000113108185 -0.015313214901756 0)
(1.0001228625529 -0.017150133309284 0)
(1.0001434809702 -0.019103618611633 0)
(1.0001751882036 -0.021153149328103 0)
(1.000231642228 -0.023293626281698 0)
(1.0003084997311 -0.02550034958313 0)
(1.0004297158707 -0.027786415520069 0)
(1.0005794919553 -0.030114079265209 0)
(1.0008003949475 -0.032531756501738 0)
(1.0010536702478 -0.03496251650228 0)
(1.0014146087701 -0.03752395448728 0)
(1.0018044361243 -0.040043553086282 0)
(1.0023505733849 -0.04277671125974 0)
(1.0029133395395 -0.045350837532946 0)
(1.0036938595713 -0.048303784476103 0)
(1.004471775033 -0.050863602417158 0)
(1.0055474194815 -0.054148058609945 0)
(1.0066063608759 -0.056569829131413 0)
(1.0080849448306 -0.060417920447079 0)
(1.0000004474307 -0.0005102535218636 0)
(0.99999906284709 -0.0016022247601961 0)
(0.99999772304371 -0.0028093126630193 0)
(0.99999693724764 -0.0040677183420112 0)
(0.99999536630184 -0.005339201344802 0)
(0.99999075261819 -0.0066111426619663 0)
(0.99998011583781 -0.0078863978855595 0)
(0.99996131935768 -0.0091853202332008 0)
(0.99993261449117 -0.010541958693692 0)
(0.9998945880162 -0.011994252389937 0)
(0.999847497107 -0.013568883329675 0)
(0.99979507253138 -0.015279271901845 0)
(0.99973838926565 -0.017120619897591 0)
(0.99968504360405 -0.019085876030737 0)
(0.99963532769137 -0.021155604424926 0)
(0.9996029595568 -0.023326500016181 0)
(0.99958416984927 -0.025574303310867 0)
(0.99960279564624 -0.027914050191241 0)
(0.99964460716807 -0.030307560822925 0)
(0.99975086715953 -0.032805561631882 0)
(0.99988680033322 -0.035330336230387 0)
(1.0001229316962 -0.038001460823592 0)
(1.0003903082175 -0.040646824743708 0)
(1.0008028730851 -0.043521145107102 0)
(1.0012445968889 -0.046256496356774 0)
(1.0018829757522 -0.049383374726576 0)
(1.0025511448459 -0.052146425181409 0)
(1.0034748447236 -0.055636501154687 0)
(1.0044532855598 -0.058316499456139 0)
(1.0057653703247 -0.06239682221477 0)
(1.0000004116144 -0.00050858007145895 0)
(0.999994956026 -0.0015960452383029 0)
(0.99998537952614 -0.0028004821207407 0)
(0.99997180523903 -0.0040554605881739 0)
(0.99995261033725 -0.005320752461039 0)
(0.99992527118088 -0.0065826997993048 0)
(0.99988650596217 -0.0078440300496682 0)
(0.99983381573417 -0.0091260332510407 0)
(0.99976506729968 -0.010464431198678 0)
(0.99968041119132 -0.011899025950813 0)
(0.99957968676822 -0.013458150090433 0)
(0.99946619123472 -0.015156759282282 0)
(0.99934072058834 -0.016991436339276 0)
(0.99921059584485 -0.018956787993739 0)
(0.99907618914866 -0.021034691762439 0)
(0.99895106641678 -0.023223633916262 0)
(0.99883213556782 -0.025500092150982 0)
(0.99874273854575 -0.027880837167537 0)
(0.99867054551779 -0.030327819626328 0)
(0.99865476289883 -0.032893305130631 0)
(0.99866548881445 -0.035500253818431 0)
(0.99876683652024 -0.038268077050439 0)
(0.99890189638057 -0.041028496020194 0)
(0.99916763843667 -0.044030770015424 0)
(0.99947626365059 -0.046918990126236 0)
(0.99995537187051 -0.050205318078938 0)
(1.0004993658874 -0.053168510675989 0)
(1.0012490664293 -0.056845964910648 0)
(1.0021308510474 -0.059790740923713 0)
(1.0032487282054 -0.064076911860525 0)
(1.000000370615 -0.00050437366027837 0)
(0.99999074659675 -0.0015819175478993 0)
(0.9999727254503 -0.0027778429173892 0)
(0.9999460205769 -0.00402325933712 0)
(0.99990873353423 -0.0052760329011559 0)
(0.99985809033176 -0.0065214616749989 0)
(0.99979055362072 -0.0077621198907599 0)
(0.99970327564131 -0.0090201460271339 0)
(0.99959374822304 -0.010332807773478 0)
(0.99946159152594 -0.01174157069884 0)
(0.99930620357567 -0.013276349885385 0)
(0.99913033864922 -0.014953550700822 0)
(0.99893455512268 -0.016771291887645 0)
(0.99872572741255 -0.018725802073417 0)
(0.99850437781832 -0.020800562118862 0)
(0.99828366127877 -0.022995702791373 0)
(0.99806127817106 -0.025288838248297 0)
(0.99785974618356 -0.027698149796768 0)
(0.9976688009072 -0.030186244001739 0)
(0.99752513434023 -0.032806411940215 0)
(0.99740410931018 -0.035482953307444 0)
(0.99736244413992 -0.038334445578014 0)
(0.9973565407274 -0.041197412815905 0)
(0.99746416157402 -0.044314341247449 0)
(0.99762859844181 -0.047344213778453 0)
(0.99793351644697 -0.050775593143052 0)
(0.99833972817375 -0.053931552114502 0)
(0.99889559518108 -0.057778509639967 0)
(0.99966497078617 -0.060989751065336 0)
(1.0005650057564 -0.065454551799231 0)
(1.0000003230357 -0.00049786491167439 0)
(0.99998645819646 -0.0015605433605842 0)
(0.99995985589096 -0.0027425901218861 0)
(0.99991981831723 -0.0039728650606364 0)
(0.99986417776428 -0.0052074350455498 0)
(0.99978991114648 -0.006430529250871 0)
(0.99969325007079 -0.0076444794363751 0)
(0.99957100566431 -0.0088721404524989 0)
(0.99942036935225 -0.010152253649244 0)
(0.99924035176239 -0.011527819183723 0)
(0.99902991088086 -0.013030296082612 0)
(0.99879106703645 -0.014677367469783 0)
(0.99852424887806 -0.016468852967531 0)
(0.99823561065844 -0.018402440700086 0)
(0.99792606627959 -0.020463618239774 0)
(0.99760789343385 -0.022653762710997 0)
(0.99727995450184 -0.024952292318979 0)
(0.99696334219961 -0.027378109828212 0)
(0.99665027293311 -0.029895275549546 0)
(0.99637435860023 -0.032557518212287 0)
(0.99611644789764 -0.035290602449884 0)
(0.99592554284471 -0.038213073372013 0)
(0.99577113421515 -0.041164118428139 0)
(0.99571202812568 -0.044383370472286 0)
(0.99572160190715 -0.047538942512169 0)
(0.99584084404668 -0.051103998081492 0)
(0.99609565151191 -0.05443585722754 0)
(0.99644129999906 -0.058440346479085 0)
(0.99708210001284 -0.061905693670841 0)
(0.99774240402453 -0.0665222425695 0)
(1.0000002706756 -0.00048938728337525 0)
(0.99998219802389 -0.0015328314031888 0)
(0.99994694681771 -0.0026960584368135 0)
(0.99989342919635 -0.0039060006725719 0)
(0.99981928806985 -0.0051171776505038 0)
(0.99972135001811 -0.0063128265159135 0)
(0.99959566138454 -0.0074949180388787 0)
(0.99943857418555 -0.0086866535703946 0)
(0.9992469084351 -0.0099279701453489 0)
(0.999019001037 -0.011263315454022 0)
(0.99875352036706 -0.012725818346196 0)
(0.99845159388518 -0.014334353835978 0)
(0.99811366922884 -0.016090642422736 0)
(0.99774477957838 -0.017993558331291 0)
(0.99734668501151 -0.020031089054638 0)
(0.99692998589411 -0.022205183380815 0)
(0.99649561042213 -0.024498142769855 0)
(0.9960618621899 -0.026928190933741 0)
(0.99562487705393 -0.029462645378159 0)
(0.9952134280375 -0.032153678938451 0)
(0.99481521279541 -0.034930281650741 0)
(0.99447066820309 -0.037910203844115 0)
(0.99416147092682 -0.040933962349898 0)
(0.99393065227606 -0.044243804429192 0)
(0.99377442124657 -0.047504547277716 0)
(0.99370278223913 -0.051198546277053 0)
(0.99379032665496 -0.054673989303748 0)
(0.99391880093055 -0.058847393252428 0)
(0.99441676516956 -0.06251717514464 0)
(0.99480783328706 -0.067295551979775 0)
(1.0000002337468 -0.00047951101860487 0)
(0.99997830876161 -0.0015004687507231 0)
(0.99993461951514 -0.0026407427767396 0)
(0.99986754553433 -0.0038256356438205 0)
(0.99977464005543 -0.0050084343477707 0)
(0.99965284761191 -0.0061716807205102 0)
(0.99949838620426 -0.0073171152083922 0)
(0.99930722577327 -0.0084681395438026 0)
(0.99907544909639 -0.0096654294589523 0)
(0.9988003211812 -0.010954397929499 0)
(0.99848025135416 -0.012369706738223 0)
(0.99811553047851 -0.013931475728322 0)
(0.99770683713884 -0.015643643039032 0)
(0.99725783867242 -0.017506104685624 0)
(0.99677152362328 -0.019509838532435 0)
(0.99625602688051 -0.021656783838547 0)
(0.99571539960016 -0.023933471957689 0)
(0.99516339538919 -0.02635557578873 0)
(0.99460238691558 -0.028896937960748 0)
(0.99405306487809 -0.031603702603057 0)
(0.99351349873069 -0.034414596317881 0)
(0.99301191968767 -0.037438538758613 0)
(0.99254417651656 -0.040526775646157 0)
(0.99213877521474 -0.043916932414081 0)
(0.99180701785169 -0.047270695908558 0)
(0.99154517603539 -0.051101285781124 0)
(0.99144450720628 -0.054679001259377 0)
(0.9913626565623 -0.059099371787337 0)
(0.99170178874589 -0.062826025678897 0)
(0.99181649887031 -0.068049540365698 0)
(1.000000232771 -0.00046911265569892 0)
(0.99997473233375 -0.0014666295307926 0)
(0.99992307645398 -0.0025835187572364 0)
(0.99984272647493 -0.0037430209084287 0)
(0.99973105685153 -0.0048965458618615 0)
(0.99958519755171 -0.0060259145162548 0)
(0.99940179403754 -0.0071324459421118 0)
(0.99917683303368 -0.0082401598261662 0)
(0.99890584418805 -0.0093914853445577 0)
(0.99858486884258 -0.010633301894953 0)
(0.99821159641588 -0.012001803370437 0)
(0.99778534963601 -0.013518210661387 0)
(0.99730700087554 -0.01518877076943 0)
(0.99677913881339 -0.017013885627922 0)
(0.99620567865091 -0.018987571257609 0)
(0.99559241910621 -0.021111474404846 0)