/*--------------------------------*- C++ -*----------------------------------*\
| =========                 |                                                 |
| \\      /  F ield         | OpenFOAM: The Open Source CFD Toolbox           |
|  \\    /   O peration     | Version:  2112                                  |
|   \\  /    A nd           | Website:  www.openfoam.com                      |
|    \\/     M anipulation  |                                                 |
\*---------------------------------------------------------------------------*/
FoamFile
{
    version     2.0;
    format      ascii;
    arch        "LSB;label=32;scalar=64";
    class       volScalarField;
    location    "7.8";
    object      p;
}
// * * * * * * * * * * * * * * * * * * * * * * * * * * * * * * * * * * * * * //

dimensions      [0 2 -2 0 0 0 0];

internalField   nonuniform List<scalar> 
22000
(
0.010596594646108
0.010575238082968
0.010531106050663
0.010463090759173
0.010370715475408
0.010254035263588
0.010113360836206
0.0099490321624101
0.0097613350608273
0.0095505151532192
0.0093168152960475
0.0090605106359342
0.0087819180412077
0.0084813984895424
0.0081593427362793
0.007816183370249
0.0074523798079173
0.0070684470255202
0.006664914673878
0.0062423825497366
0.0058014311142755
0.005342746899475
0.0048669361827502
0.0043747985669866
0.0038669305471291
0.0033443083612815
0.0028074399969377
0.0022575901387314
0.0016949712884789
0.0011213334290499
0.010997164977383
0.010974508457774
0.010928633021822
0.01085854820583
0.01076375105868
0.010644229042809
0.010500238202473
0.010332089471923
0.010140056653234
0.0099243794443536
0.0096852939470479
0.0094230681121647
0.0091380115692451
0.0088304816534879
0.0085008650830964
0.0081495919666814
0.0077771118309462
0.0073839320492791
0.0069705642477322
0.0065376046376334
0.0060856151748879
0.0056152976659736
0.0051272364172262
0.004622274841876
0.004100960717255
0.0035643518298646
0.0030128357028504
0.0024478158645954
0.0018692152005898
0.0012790630636377
0.011733779138463
0.011710077297438
0.011662174954108
0.01158912279541
0.011490449512262
0.011366146493496
0.011216452844057
0.011041657176071
0.010842013270987
0.010617744356643
0.010369070447427
0.010096243651753
0.0097995556766562
0.0094793477236761
0.0091359882007596
0.0087698940568805
0.0083814967823765
0.0079712973150959
0.0075397891399642
0.0070875754515399
0.00661519546591
0.0061233829353073
0.0056126810466074
0.0050840146233966
0.0045378416983068
0.0039753985569346
0.0033968698052622
0.002804012650921
0.0021962436849515
0.0015762868483953
0.012762380289663
0.012737476334548
0.012687140217278
0.012610380277908
0.012506713284832
0.012376133099546
0.012218874954101
0.012035212712435
0.011825377527086
0.011589567139592
0.011327974147613
0.011040824273151
0.010728381171319
0.01039096039862
0.010028900820374
0.0096425959417437
0.0092324465012145
0.0087989379938699
0.0083425316400234
0.0078638329857407
0.007363341724505
0.0068418296115329
0.0062997744626777
0.0057382096043985
0.0051574561209675
0.0045589929806858
0.0039426948749487
0.0033107925541124
0.0026619260235888
0.0019997489856027
0.014045317429873
0.014019023249078
0.013965864444324
0.013884790200404
0.013775289618347
0.013637349119549
0.013471193413529
0.013277074564006
0.013055191342541
0.012805703436553
0.012528761190507
0.012224548095093
0.011893282778519
0.011535238045273
0.011150704767343
0.01074003560065
0.010303581152604
0.0098417958247116
0.0093550883752864
0.0088440556857677
0.0083091346912098
0.0077511336843935
0.0071704327968033
0.0065681916996124
0.0059445380031092
0.005301252088193
0.0046377901124491
0.0039569909202097
0.0032564797518961
0.0025411384780057
0.015549753475542
0.015521959288482
0.015465750769759
0.015380011215448
0.015264195093008
0.015118272200297
0.014942444409203
0.014736927796769
0.014501873596967
0.014237387334108
0.013943559428343
0.013620511952748
0.013268397600234
0.012887424677931
0.012477812693803
0.01203985034478
0.011573812639215
0.011080100038666
0.010559041077886
0.010011204293279
0.0094369322621042
0.0088370591322224
0.0082118262081234
0.0075625305783331
0.006889043936299
0.0061935016951266
0.0054748288930239
0.0047366048677969
0.0039751927897887
0.0031969781138901
0.017246120947669
0.017216806614047
0.017157501741348
0.017067018855066
0.016944771416051
0.016790703197293
0.016604979822766
0.01638776528658
0.016139145648138
0.015859153150611
0.015547797176842
0.015205115048975
0.014831167872521
0.014426072112048
0.013989946512954
0.013522985862045
0.013025357008743
0.012497375644811
0.011939254264421
0.011351504597419
0.010734334221844
0.010088583450462
0.009414304845279
0.0087129333205995
0.0079840112999142
0.0072300736330378
0.0064493897875843
0.005646396667687
0.004815930279738
0.0039661211488673
0.019106946530965
0.019076180686286
0.019013911093291
0.018918877129774
0.018790445729052
0.018628524590876
0.01843322830406
0.018204650802577
0.017942793056684
0.017647592127413
0.017318952091187
0.016956798509461
0.016561071254345
0.01613176296539
0.01566885716956
0.015172418829699
0.014642467606485
0.014079196112406
0.013482656988305
0.012853267578469
0.012191050412517
0.011496821301438
0.010770382095089
0.010013295248917
0.0092246887036399
0.0084075263242364
0.0075592841387346
0.006685358355554
0.005778778417968
0.0048496301578678
0.02110613091711
0.021074066895975
0.021009136160769
0.020910004752008
0.02077598773293
0.020606945748023
0.020402926413136
0.020163934582887
0.019889865185128
0.019580536792613
0.019235722105555
0.018855205513668
0.018438773153362
0.017986258174678
0.017497470115553
0.016972302835294
0.016410583745203
0.015812336849607
0.015177403158536
0.01450605886178
0.013798081012366
0.013054219298176
0.012273951533048
0.011458942694074
0.010607806910026
0.0097239528444082
0.008803912988026
0.0078541237546436
0.0068655176871902
0.0058503008441156
0.023218574752622
0.023185445148993
0.023118317258847
0.023015785340249
0.022877107672252
0.022702086744254
0.022490687332885
0.022242806421071
0.021958212073504
0.021636580747225
0.021277527008434
0.020880663462159
0.02044558837804
0.019971937334415
0.019459304063428
0.018907366036554
0.018315708574284
0.017684135557005
0.017012217531374
0.016300034167936
0.015547047220945
0.014753886904878
0.013919620854951
0.01304597860585
0.012130948663754
0.011178379821433
0.010183698246152
0.0091544359991966
0.0080791245421636
0.006972195160316
0.025420053536423
0.025386161221443
0.02531744356113
0.025212425502067
0.025070303862519
0.024890812557621
0.024673819098777
0.024419095432125
0.024126263251242
0.023794834158936
0.023424238584268
0.023013887222259
0.022563156515676
0.022071445862868
0.021538090240171
0.020962503374252
0.020343975713561
0.01968203523264
0.018975917729398
0.018225443866703
0.017429681560016
0.016589077702908
0.015702192966379
0.014770766407239
0.013792035058943
0.012770263253083
0.011699595614486
0.01058868059425
0.0094233341557348
0.0082202433261952
0.027687262602556
0.027652969490062
0.027583390741926
0.027476984531269
0.027332881758645
0.02715073913009
0.026930315230121
0.026671242543176
0.026372979398832
0.02603485223446
0.025656083900726
0.025235855503219
0.024773289864039
0.024267513179579
0.023717559770993
0.023122532502013
0.022481373524676
0.021793277202404
0.021057077059051
0.020272266960516
0.019437436164276
0.018552774248417
0.017616227598023
0.016629475308092
0.015588866068913
0.014499027784691
0.013352637350537
0.012159441844975
0.01090221480019
0.0095998401245398
0.029997972840778
0.029963684478458
0.029894065662824
0.02978751004763
0.029643079794651
0.029460348636062
0.029238957748829
0.028978388919836
0.028677923564336
0.028336686574254
0.027953674155067
0.027527814559712
0.02705794942672
0.026542898587457
0.025981357274807
0.025372073201939
0.024713588878811
0.024004708170729
0.023243794502873
0.022429944690896
0.021561180783375
0.020637353677538
0.019655681898478
0.018617698039074
0.017518715642815
0.016363649322705
0.015143513153794
0.013869086862644
0.012519768358846
0.01111647029289
0.032331244902437
0.032297394327108
0.032228612931728
0.032123236102085
0.031980259521461
0.031799171626123
0.031579490000506
0.031320537476807
0.031021409368555
0.030681017937891
0.030298119413646
0.02987137192404
0.029399314548328
0.028880433821819
0.028313053504429
0.02769552745967
0.027025952194416
0.026302688086614
0.025523563679449
0.024687209099569
0.023790991138205
0.0228343357203
0.021813616900758
0.020730122460566
0.019577980333761
0.01836228387023
0.017072185588883
0.015719374382187
0.014279544456916
0.012775298586336
0.034667647715736
0.034634681496944
0.034567637765042
0.034464808465767
0.034325130311575
0.034148006453832
0.033932827889969
0.03367875495117
0.033384693234353
0.033049337292655
0.032671196686502
0.032248649331428
0.031779917997147
0.031263137120576
0.030696235009107
0.030077141308285
0.029403468139088
0.028673086377464
0.027883231364337
0.027032000889356
0.026116022480847
0.025134209527927
0.024081978254117
0.022960262675154
0.0217618605083
0.020491916195233
0.019137545187247
0.017711133846734
0.016184458649827
0.014580685611884
0.036989439305467
0.036957801047901
0.036893392142531
0.036794478885322
0.036659948993996
0.0364891233669
0.036281267181165
0.036035379735423
0.035750179804301
0.035424146893378
0.035055544988002
0.034642469680686
0.034182822455187
0.033674376460802
0.033114650676133
0.03250113080025
0.031830916981089
0.031101354900536
0.030309038403782
0.029451474767139
0.028524476288049
0.027526356758568
0.026451465439438
0.025300262546396
0.024064080406345
0.022747948037593
0.021336875124843
0.019843503929221
0.018236864052775
0.016536449411079
0.039280727646512
0.039250845269763
0.039189938705415
0.039096268606928
0.038968686042516
0.03880643511067
0.038608659921249
0.038374205754298
0.038101613609988
0.037789157424789
0.037434864833864
0.03703655673609
0.036591818133078
0.036098062201388
0.0355523960302
0.034951854170641
0.034293010093922
0.033572662267212
0.032786728383466
0.031932079547787
0.031003649601879
0.029999072216824
0.028911531028931
0.027740877034477
0.02647685044237
0.025124085516777
0.023665548388809
0.022112998228222
0.020435311359443
0.018646606982974
0.041527581794075
0.041499854880604
0.041443263506439
0.041356084719095
0.041237147258085
0.041085626754984
0.040900554469134
0.040680632961818
0.040424239915977
0.040129460040575
0.039794101619207
0.039415727622344
0.038991621805041
0.038518850826435
0.037994118838887
0.037414015659362
0.036774586987081
0.036072078486834
0.035301712780053
0.034459697481404
0.033540042129077
0.032539636150615
0.031450417953178
0.030271502158444
0.028990933980823
0.027612729237771
0.02611770798599
0.024516867503636
0.022775781727467
0.020908325778224
0.04371808381523
0.043692875445712
0.043641337408364
0.043561786153797
0.043453044882815
0.043314232857101
0.043144281636677
0.042941767081635
0.042704921741211
0.042431661741981
0.042119598720947
0.041766062854878
0.041368061424773
0.040922340191213
0.040425222489953
0.039872875369377
0.039260829377305
0.0385847901552
0.03783928127584
0.037019842405284
0.036119529477503
0.03513445130279
0.034055241469697
0.032880179120325
0.031595505894657
0.030204431076115
0.028685266891284
0.027048446824672
0.025254982042477
0.023318581538155
0.045842314628374
0.045819949768556
0.04577412264675
0.045703207202563
0.045606035584801
0.045481686601475
0.045329011372601
0.045146481088727
0.044932207657886
0.044683965665076
0.04439919843219
0.044075033747221
0.043708232850569
0.043295254297829
0.042832072986983
0.042314469863428
0.041737489654502
0.041096331814735
0.040384835882226
0.039597896178446
0.038727601361258
0.037769277702403
0.036712206706206
0.035553787811534
0.034278379107036
0.032888258601733
0.031358780325739
0.029699602685405
0.027865683949946
0.025868974195027
0.047892276641006
0.047873042942474
0.047833505761542
0.047772106388636
0.047687698357426
0.047579337147724
0.047445812094013
0.047285510370663
0.047096449871922
0.046876297617166
0.046622368946817
0.046331631062795
0.046000640462573
0.045625609572235
0.045202207722156
0.044725870528842
0.044191199899144
0.043592929873377
0.042924259884598
0.042179480250035
0.041349742905638
0.040429617623731
0.039407020872732
0.038278457958
0.037026379730225
0.035652115383781
0.034128079431823
0.032462916012034
0.030603538137846
0.028560859703233
0.049861781865452
0.049845905171342
0.049813137266139
0.049761991045781
0.049691358707973
0.04960029370465
0.049487536551597
0.049351404523714
0.049189845083729
0.049000443974167
0.04878042642016
0.048526640374507
0.048235488554257
0.047902988173832
0.047524573355289
0.047095387276845
0.04660967209392
0.046061720370181
0.045444186076155
0.044750739056407
0.043971736236449
0.043100933228996
0.042125075536093
0.041039637792481
0.039825270481542
0.038482273098306
0.036980232810631
0.035328389894443
0.033462957897809
0.031388829441548
0.051746391964303
0.051733932682911
0.051708185265151
0.051667764860694
0.051611639176651
0.051538871171409
0.051448149673516
0.051337729923737
0.051205525664304
0.051049076988724
0.050865559474067
0.050651724368142
0.050403850330826
0.050117775994443
0.049788757415623
0.049411666358141
0.048980517364599
0.048489163354827
0.047929948177348
0.047295762849281
0.046576565502234
0.045764809544119
0.044846920912126
0.043816284628712
0.042653335994828
0.041354882385526
0.039889768404009
0.038263188728944
0.036412047088856
0.034332571045746
0.053543591419018
0.05353429274869
0.053515327336802
0.053485569269223
0.053444103530586
0.053389975529671
0.053321795382793
0.053237765955148
0.053135772730092
0.05301338493993
0.052867789266617
0.052695703524316
0.052493355770266
0.052256439868025
0.051980069246098
0.051658783855976
0.051286379771066
0.05085609900351
0.050360156704419
0.049790370594963
0.049136881007391
0.048389910424744
0.047537135933544
0.046567388790353
0.045465124481068
0.044217271728871
0.042801607845428
0.041199341161492
0.039360811496397
0.037253211294786
0.055253527378052
0.055247060202236
0.055234281418915
0.055214897345531
0.055187916370899
0.055152335624351
0.055106669936273
0.055049122747871
0.0549776313155
0.054889803460526
0.054782805913826
0.054653389481063
0.054497873983863
0.0543120228524
0.054091036283858
0.053829276257286
0.053520396536281
0.053156883585969
0.052730729655015
0.052232347805369
0.051652438799057
0.050978394108601
0.050200409605189
0.049300976567909
0.048272502110637
0.047086627631731
0.045744452792528
0.044185492640502
0.042401811062057
0.04017769939268
0.00057230488683574
5.0342741650785e-05
-0.00047923103051362
-0.001015401169894
-0.0015572928222073
-0.0021041530597735
-0.002655316957279
-0.003210136216234
-0.0037679293179951
-0.0043279783480145
-0.0048895462640779
-0.0054518896863028
-0.0060142622053885
-0.0065759152461559
-0.0071360984305201
-0.0076940612859975
-0.0082490553001243
-0.008800336533152
-0.0093471664571342
-0.0098888130787438
-0.010424548554768
-0.010953644164526
-0.011475352711367
-0.01198888594272
-0.012493446548521
-0.012988772768542
-0.013474398210012
-0.013949664217067
-0.014413885999436
-0.014866439971799
-0.015306779928204
-0.015734417709279
-0.01614890171596
-0.016549800921562
-0.016936709835037
-0.017309243985724
-0.017667055558417
-0.018009816925641
-0.018337248964091
-0.018649078259852
-0.018945101050359
-0.019225083954409
-0.019488913596456
-0.019736366056047
-0.019967457848591
-0.020181913236578
-0.020379984444735
-0.020561239559496
-0.020726434849601
-0.020874934458574
0.00071687625782256
0.00018544430490266
-0.00035435598097272
-0.00090091040583517
-0.0014530817699283
-0.0020101287901158
-0.0025715642656409
-0.0031369056751936
-0.0037055494337677
-0.0042767923108711
-0.0048498901766555
-0.0054240907467603
-0.0059986399268911
-0.0065727788104253
-0.0071457414995894
-0.0077167554054727
-0.0082850424733742
-0.0088498205172699
-0.0094103043214271
-0.0099657084320016
-0.010515255180571
-0.011058189934282
-0.011593818054886
-0.012121558418018
-0.0126409280929
-0.013150808918828
-0.013650361334718
-0.014138973827188
-0.014616100091859
-0.01508120766952
-0.015533771073248
-0.01597326493388
-0.01639918375914
-0.01681105073731
-0.017208436120344
-0.017590935432302
-0.01795819731232
-0.018309878083482
-0.01864571011599
-0.018965399516183
-0.019268779809468
-0.019555579689605
-0.019825769202898
-0.020079039015372
-0.020315574165848
-0.020534888928689
-0.020737535657416
-0.02092252292213
-0.021090944682422
-0.021240312325589
0.00098753026807131
0.00043232937536171
-0.00013308594024925
-0.0007056237516207
-0.0012833330589416
-0.0018653194979977
-0.0024513627280342
-0.0030412579481109
-0.0036345079943073
-0.0042303895552719
-0.0048281021823125
-0.0054268468399467
-0.0060258389599886
-0.006624298738293
-0.0072214417282041
-0.0078164758990862
-0.0084086026425241
-0.0089970198062061
-0.00958092602367
-0.010159524515445
-0.010732031409605
-0.011297670575215
-0.01185565971211
-0.012405182059576
-0.012945332812213
-0.013475492042242
-0.013995043338119
-0.014503352125316
-0.014999766789609
-0.015483657691966
-0.015954447003342
-0.016411592510499
-0.016854592764984
-0.017282972314319
-0.017696311400201
-0.018094202950726
-0.018476317516829
-0.018842307829907
-0.019191953250078
-0.019524941405634
-0.019841192833464
-0.020140375783638
-0.020422625201262
-0.020687471790189
-0.020935417183221
-0.021165583258926
-0.021379106687679
-0.021573994750127
-0.021752113204053
-0.021907591918312
0.0013718297978549
0.00077959534423326
0.0001746171479864
-0.00043752148623454
-0.0010536138643079
-0.0016726101760458
-0.002294762668613
-0.0029203181039604
-0.003548947534527
-0.0041799010724578
-0.0048123054843303
-0.0054453138568936
-0.006078125016885
-0.0067099584879173
-0.0073400326494798
-0.0079675558544685
-0.0085917261689084
-0.0092117340822288
-0.0098267629703459
-0.010435995458526
-0.011038609798054
-0.011633783567048
-0.012220711592828
-0.012798575472562
-0.013366669133409
-0.013924371982755
-0.014471016826609
-0.015005828100956
-0.015528113105869
-0.016037278863183
-0.016532766707393
-0.01701403081324
-0.017480580381584
-0.017931946299586
-0.018367729599277
-0.018787525281802
-0.01919104151057
-0.019577921924364
-0.019948011019608
-0.020300956646041
-0.020636800360106
-0.020955101613358
-0.021256229877506
-0.021539452062938
-0.021805726232701
-0.022053550355976
-0.022284895119026
-0.022496171180152
-0.022690251909808
-0.022855899540448
0.0018631558828815
0.0012222584909538
0.00056528904566837
-9.8605117266983e-05
-0.00076453459228936
-0.0014313384969693
-0.0020999801555026
-0.002771337995166
-0.003445300667535
-0.0041210685926667
-0.0047976672938432
-0.0054741932610477
-0.0061498356868667
-0.0068238260875298
-0.0074953968732183
-0.0081637648747675
-0.008828131376142
-0.0094876855174136
-0.010141608487768
-0.010789080789218
-0.011429283136797
-0.012061421689407
-0.012684683027634
-0.013298203687771
-0.013901295510232
-0.014493381661609
-0.01507366525216
-0.015641361208061
-0.016195866628872
-0.016736609222708
-0.017263025521874
-0.017774572732256
-0.018270776934609
-0.01875117286595
-0.019215391485684
-0.019663028688368
-0.020093842892588
-0.020507458536957
-0.02090380793943
-0.021282475826012
-0.02164366877852
-0.021986783903092
-0.022312507448405
-0.02261972664859
-0.022910011949993
-0.023180993457188
-0.023435761995175
-0.023668575538183
-0.023883693258313
-0.024062750387464
0.0024592312069642
0.0017588995440436
0.0010381070521229
0.00031083417602465
-0.00041585594550451
-0.001140754992937
-0.0018658052123572
-0.0025927018623667
-0.003321585627017
-0.0040515651903695
-0.0047815234004238
-0.0055104862649786
-0.0062376390911629
-0.0069622358422184
-0.0076835313130343
-0.0084007571456859
-0.009113123804948
-0.0098198271399121
-0.010520055064429
-0.011212991263683
-0.011897831513105
-0.012573784471365
-0.013240088655678
-0.013896098482011
-0.014540512354879
-0.015172964375495
-0.015792683839064
-0.016399102530516
-0.016991627614138
-0.01756963474122
-0.018132564139513
-0.018679887220893
-0.01921116040033
-0.019725930410241
-0.020223874951084
-0.020704592767021
-0.021167917098743
-0.021613447584632
-0.022041243411273
-0.022450801946067
-0.022842558029869
-0.023215688210716
-0.023571305697162
-0.023907797346919
-0.024227541115714
-0.024527052166412
-0.024810872984893
-0.025070549945446
-0.025312123445263
-0.02550834183199
0.0031597863837158
0.0023897108232869
0.0015935099388125
0.00079151157120199
-6.502523716089e-06
-0.00079938851782535
-0.0015903881092498
-0.0023822179530822
-0.0031752965924498
-0.0039685827918598
-0.0047607660142639
-0.0055507859791212
-0.0063378310568405
-0.0071211901543238
-0.0079001489013696
-0.0086739570864598
-0.0094418356927193
-0.010202988430995
-0.010956608391998
-0.011701882730445
-0.012438003099058
-0.013164167215639
-0.013879595807854
-0.014583527102519
-0.015275612241812
-0.015954601954494
-0.016619883829664
-0.017270890964999
-0.017907044861504
-0.01852776855464
-0.019132553689534
-0.019720902580757
-0.020292423339943
-0.020846685880893
-0.021383440086809
-0.021902289220332
-0.022403174671749
-0.022885661111567
-0.023349986015617
-0.023795525733139
-0.02422302633902
-0.024631369365917
-0.025022233639931
-0.025393359192415
-0.025748160748963
-0.026081760740841
-0.026400512554409
-0.02669266381708
-0.026966394922834
-0.027183716019613
0.003966729081272
0.0031169033157189
0.0022337504350361
0.0013457626100682
0.00046605335226143
-0.00040447187372556
-0.0012707417781187
-0.0021367201595033
-0.0030031173160966
-0.0038686660823139
-0.0047318014512633
-0.0055913604616038
-0.0064465450173961
-0.0072966925681153
-0.0081411268288908
-0.0089791184015867
-0.0098099004921431
-0.010632688579546
-0.011446689352209
-0.012251105353448
-0.013045145927028
-0.013828033599096
-0.014599016326372
-0.015357367309693
-0.016102447231485
-0.016833444858071
-0.017549705347222
-0.018250623731692
-0.018935645001901
-0.019604228865385
-0.020255920020894
-0.02089025569467
-0.021506915220689
-0.022105496010438
-0.022685848693578
-0.02324758084162
-0.023790788267514
-0.024314982689709
-0.024820649864768
-0.025306997696073
-0.025775194384948
-0.026223731123567
-0.026655027029452
-0.027066005205725
-0.027461389154622
-0.027834610266924
-0.028194231508019
-0.028524618952985
-0.028836460150682
-0.029079282642515
0.0048836879373465
0.0039442546595989
0.0029624532925632
0.0019771196375894
0.0010053857885967
4.7667656676002e-05
-0.00090311398440134
-0.0018524187454096
-0.0028012474053722
-0.0037480083024973
-0.0046908100157083
-0.0056283692534208
-0.0065599135022328
-0.0074848442150395
-0.0084025299800108
-0.0093122611246081
-0.010213280836507
-0.011104816335325
-0.011986089917817
-0.012856322462994
-0.013714743329025
-0.014560597756335
-0.01539315560324
-0.01621170962226
-0.017015605762249
-0.017804132597998
-0.018576671768191
-0.019332645299235
-0.020071543754362
-0.020792868202637
-0.021496233507047
-0.022181221478876
-0.022847609023753
-0.023495026977533
-0.024123470745387
-0.024732545496713
-0.025322565978567
-0.025892963247976
-0.026444571330546
-0.026976365132523
-0.027490087185408
-0.027983717046017
-0.028460639762051
-0.028916759949348
-0.029358429456731
-0.029777082466385
-0.030183904668799
-0.030558856954166
-0.030915401112995
-0.031188996507848
0.0059155851273035
0.0048767243825251
0.0037842801451083
0.0026900306813176
0.0016158871498736
0.0005614259301766
-0.00048313272078619
-0.0015250090754141
-0.0025654698456769
-0.0036024773769482
-0.0046337315393462
-0.005657811793896
-0.0066739874402723
-0.007681739242521
-0.0086804841183067
-0.0096695283453886
-0.010648119747834
-0.011615494685008
-0.01257089201402
-0.013513553150262
-0.014442730351565
-0.01535769452869
-0.016257743764706
-0.017142200676108
-0.018010435753304
-0.018861797625667
-0.019695720119248
-0.020511670106852
-0.021309203319121
-0.022087875577782
-0.022847395746441
-0.023587399033735
-0.024307799472617
-0.025008262652816
-0.025688986129776
-0.026349558259935
-0.026990605005965
-0.027611431232089
-0.028213359577534
-0.028795041382658
-0.029358998441308
-0.029902546296238
-0.030430318965988
-0.03093698319778
-0.031430881702131
-0.031901165887376
-0.032362034801116
-0.032788662118369
-0.03319734243043
-0.0335082647335
0.0070682773045838
0.005920128208295
0.0047046487933608
0.0034896330285315
0.0023025904420148
0.0011417817775354
-5.9150044931605e-06
-0.0011497544900719
-0.0022912127696768
-0.0034276559358953
-0.0045562852811977
-0.0056755297797524
-0.0067847193590903
-0.0078834297992841
-0.0089711273057051
-0.010047124976886
-0.011110666431863
-0.012160992722842
-0.01319735825048
-0.014219026496159
-0.015225275409285
-0.016215404973024
-0.017188746977715
-0.01814466135858
-0.019082559164423
-0.020001846861045
-0.020902021221258
-0.021782607492508
-0.022643247712249
-0.02348356358711
-0.024303390191208
-0.025102424982252
-0.025880767665367
-0.026638114741023
-0.027374948449862
-0.028090811144255
-0.028786765727835
-0.029461927025289
-0.03011829104705
-0.030754072491987
-0.031372826089716
-0.031971037203205
-0.032554915487051
-0.03311768060526
-0.033670034612586
-0.034198655480756
-0.03472104334309
-0.035207490418019
-0.035676801283969
-0.036033389545122
0.0083481862338931
0.0070808132313967
0.0057294621458016
0.0043815358169603
0.0030709971344728
0.0017941567626611
0.00053381277992515
-0.0007215878292959
-0.0019736279337349
-0.0032188997584892
-0.0044540114252909
-0.0056772336749229
-0.0068879810142379
-0.0080859370652407
-0.0092706115299077
-0.010441310801178
-0.011597261286011
-0.012737700891396
-0.013861897315083
-0.014969136150512
-0.016058722037625
-0.017129986356377
-0.018182298835099
-0.019215062663179
-0.020227739908984
-0.0212198001699
-0.022190817276492
-0.023140387156994
-0.024068262674157
-0.024974145049421
-0.025858033452354
-0.026719692624834
-0.027559475051845
-0.028377097721301
-0.029173432439156
-0.029947939511409
-0.030702279558575
-0.031435307845261
-0.032149908446584
-0.032843769272216
-0.033521725231506
-0.034179345569286
-0.034824659703169
-0.035449402509358
-0.036066824837896
-0.036661240743728
-0.037253403549763
-0.037809206325963
-0.038348952663163
-0.038761932931817
0.0097619450794764
0.0083653305315789
0.0068648288221495
0.0053715960757043
0.0039268955203323
0.0025242598808252
0.0011415806374804
-0.0002352267607198
-0.0016076899167516
-0.0029714186340629
-0.0043223358494054
-0.0056585572158268
-0.0069796065305518
-0.008285282766519
-0.0095751262439467
-0.010848415036991
-0.012104341152819
-0.013342129462223
-0.014561055310186
-0.015760423707224
-0.016939564782198
-0.018097841240145
-0.019234663203171
-0.020349481916489
-0.021441820051416
-0.022511217666261
-0.023557341459567
-0.024579872059134
-0.02557870125371
-0.026553623053376
-0.027504848571036
-0.028432217729851
-0.029336410711691
-0.030217156410616
-0.031075836885179
-0.031911801571058
-0.032727473203745
-0.033521425278348
-0.034297605795802
-0.035053233707377
-0.03579451321068
-0.036516364457106
-0.037228483765727
-0.037921726308481
-0.038611366020882
-0.039280418063413
-0.03995183249849
-0.040588833517491
-0.041210780146968
-0.041694239590773
0.011315995742407
0.0097800800084475
0.0081167758788279
0.0064656952399864
0.0048761846762057
0.0033379403969202
0.0018230440314063
0.00031471229049031
-0.0011882866004877
-0.0026803464402245
-0.0041566236580328
-0.0056150956680392
-0.0070554232442561
-0.0084775172173684
-0.0098809212127181
-0.011264855673417
-0.012628456056048
-0.013970920432033
-0.015291523936299
-0.016589584578421
-0.017864452770715
-0.019115519545975
-0.02034223559672
-0.021544102665151
-0.022720712118663
-0.023871682999985
-0.024996793221958
-0.026095823313877
-0.027168835195885
-0.028215734120135
-0.029236992901185
-0.030232545560127
-0.03120347803333
-0.032149548545004
-0.033072746516987
-0.033972346798752
-0.03485162383343
-0.035708991444485
-0.036549445682257
-0.037370122520364
-0.038178252933911
-0.038969104457928
-0.039752975204908
-0.040521934509754
-0.041291023070559
-0.042045501513654
-0.042806792699181
-0.043540590027091
-0.044259704111596
-0.044833791655973
0.013016131882616
0.011330930517523
0.0094909501882874
0.007669510833454
0.0059246910723749
0.0042410304628773
0.0025838501459262
0.00093360429170061
-0.0007103099375397
-0.0023408145703322
-0.0039522398573902
-0.0055424602913725
-0.0071112958494036
-0.0086587503230165
-0.010184329794962
-0.011687156674048
-0.013166282651683
-0.014620861968645
-0.01605015573588
-0.017453482968042
-0.018830204897012
-0.020179733818345
-0.021501558391656
-0.022795230920191
-0.02406041752617
-0.02529682250281
-0.026504352774302
-0.027682908680704
-0.028832754426439
-0.029953934625401
-0.031047230311358
-0.032112719150542
-0.033151943687775
-0.034164784587548
-0.035153856800839
-0.036118566315855
-0.037062924160288
-0.037985651108843
-0.038892360175551
-0.039781067548391
-0.040658974429723
-0.0415236109565
-0.042383561191953
-0.043236005736794
-0.044090995542992
-0.044943383210585
-0.045804543544655
-0.046654446964738
-0.047486336697795
-0.048179808166476
0.014867094129515
0.013022775146572
0.010992282541816
0.0089882739679804
0.0070779831371464
0.0052391870494023
0.003429492447098
0.0016266881026669
-0.00016875319410713
-0.0019480209742675
-0.0037045996728187
-0.0054363168644982
-0.0071431638471624
-0.0088251910142892
-0.010481802712111
-0.012111975261542
-0.013714646657322
-0.01528890602699
-0.016833981987109
-0.018349174692509
-0.019833838171941
-0.021287392256932
-0.022709356119811
-0.024099330415544
-0.025457060190556
-0.026782341457344
-0.028075223379606
-0.029335747741583
-0.030564407510072
-0.031761435325673
-0.032927950871505
-0.034064275634786
-0.035172409148397
-0.036252572229997
-0.03730787492451
-0.038338357174203
-0.03934828688429
-0.040337789084735
-0.041311927673953
-0.042271656403025
-0.043221997902734
-0.044165986717933
-0.045107013836236
-0.046052426463968
-0.04700093960479
-0.047966429813328
-0.048937773330124
-0.049926828669602
-0.050885086207523
-0.051729737942491
0.016873287948113
0.014859406312656
0.012624690498958
0.010426498121691
0.0083411512573294
0.0063377224288779
0.0043651838083855
0.002398964133888
0.00044119416537543
-0.0014973166512941
-0.0034092364867991
-0.0052924280462474