/*--------------------------------*- C++ -*----------------------------------*\
| =========                 |                                                 |
| \\      /  F ield         | OpenFOAM: The Open Source CFD Toolbox           |
|  \\    /   O peration     | Version:  2112                                  |
|   \\  /    A nd           | Website:  www.openfoam.com                      |
|    \\/     M anipulation  |                                                 |
\*---------------------------------------------------------------------------*/
FoamFile
{
    version     2.0;
    format      ascii;
    arch        "LSB;label=32;scalar=64";
    class       surfaceScalarField;
    location    "7.8";
    object      phi;
}
// * * * * * * * * * * * * * * * * * * * * * * * * * * * * * * * * * * * * * //

dimensions      [0 3 -1 0 0 0 0];

oriented        oriented;

internalField   nonuniform List<scalar> 
43645
(
0.39512363474312
-4.7617228266995e-06
0.39513782389215
-1.4189201117085e-05
0.39516143927151
-2.3615435652663e-05
0.3951944681193
-3.3028905945848e-05
0.39523687231067
-4.240424975461e-05
0.39528858356492
-5.1711312074051e-05
0.39534951431912
-6.0930810922026e-05
0.3954195706725
-7.0056408888345e-05
0.39549865475933
-7.9084140915014e-05
0.39558667203556
-8.8017328978974e-05
0.39568352439282
-9.6852408515137e-05
0.39578911142293
-0.00010558708002091
0.39590329775128
-0.00011418637676257
0.39602591977103
-0.00012262206687367
0.39615675052221
-0.00013083079684496
0.39629557499048
-0.00013882451272054
0.39644215363376
-0.00014657868637158
0.39659638500054
-0.00015423140879719
0.39675816094057
-0.00016177598081057
0.39692763508148
-0.00016947418078347
0.39710481310977
-0.0001771780670822
0.39729010010844
-0.00018528703673651
0.3974834049678
-0.00019330489649457
0.39768539486879
-0.00020198993756989
0.39789560910299
-0.00021021427001224
0.39811525234045
-0.00021964327285456
0.39834312410654
-0.00022787180083966
0.39858165283057
-0.00023852875804529
0.3988280531767
-0.00024640037892095
-0.00025920755330736
0.39908726069697
0.37294703779722
-9.2448552503124e-06
0.37296050114558
-2.7652631610227e-05
0.37298304365451
-4.6158028142164e-05
0.37301464849655
-6.4633831446569e-05
0.37305527247904
-8.3028314598455e-05
0.37310484902703
-0.00010128794097139
0.37316329698311
-0.00011937884613254
0.37323053011645
-0.00013728961964879
0.37330645752901
-0.0001550116289418
0.37339099013131
-0.00017255000498017
0.37348403383988
-0.00018989618878167
0.373585490504
-0.00020704381406944
0.37369522544545
-0.00022392138612879
0.37381307301408
-0.0002404697017168
0.37393880227726
-0.00025656012430294
0.37407219038664
-0.00027221268482735
0.37421298949959
-0.0002873778602578
0.37436108546999
-0.0003023274387693
0.3745163611117
-0.000317051680512
0.37467895391579
-0.00033206704173086
0.37484886380831
-0.00034708801509533
0.37502647382968
-0.00036289711270075
0.37521169453951
-0.00037852565974296
0.37540515813093
-0.00039545358173383
0.37560642346829
-0.00041147965911788
0.37581663645887
-0.00042985631468211
0.37603466014197
-0.00044589553433017
0.37626282156106
-0.00046669022648975
0.37649849534793
-0.00048207421281392
-0.00050717334869601
0.3767464610954
0.35201536354
-1.3710952663761e-05
0.35202873180993
-4.1020988516775e-05
0.35205100179971
-6.8428105008785e-05
0.35208213824788
-9.5770365718999e-05
0.3521220926612
-0.00012298281222305
0.35217079852139
-0.00014999388360323
0.35222817763049
-0.00017675803549799
0.35229414882903
-0.00020326089645859
0.35236862714308
-0.00022949001897049
0.35245152926016
-0.00025545219603354
0.35254276536158
-0.00028113236182756
0.35264224001682
-0.00030651853895406
0.35274981874659
-0.00033150018322279
0.35286533427957
-0.00035598530014196
0.35298855041666
-0.0003797763246378
0.35311923684131
-0.00040289917104609
0.35325713330655
-0.00042527438507156
0.35340211219714
-0.00044730638753692
0.35355403767658
-0.00046897721638926
0.35371303085986
-0.00049106028035606
0.35387906909745
-0.00051312630657105
0.35405251980567
-0.00053634787402289
0.35423326654131
-0.00055927244728879
0.3544219293639
-0.00058411645571488
0.3546180288965
-0.00060757924213662
0.35482270722147
-0.00063453468981181
0.35503475888842
-0.00065794725066717
0.3552565319407
-0.00068846332741009
0.35548525538631
-0.00071079770476446
-0.00074770414922128
0.35572578613907
0.33225849863809
-1.8165702260249e-05
0.33227185964138
-5.4382067637093e-05
0.33229407844809
-9.0646987858481e-05
0.33232508451368
-0.00012677650674506
0.33236481354308
-0.00016271191555556
0.33241319665619
-0.00019837706909042
0.3324701595286
-0.00023372097835805
0.33253562729147
-0.00026872872807023
0.33260952145884
-0.00030338425301025
0.33269176454669
-0.00033769534879347
0.33278227033627
-0.00037163821417968
0.33288094482795
-0.00040519309165649
0.33298765127938
-0.00043820669355044
0.33310221769658
-0.00047055177460438
0.33322439835459
-0.00050195703789251
0.33335395149309
-0.0005324523633552
0.33349059979016
-0.00056192273414182
0.33363419918404
-0.00059090583222902
0.33378459124488
-0.00061936932648105
0.333941879753
-0.00064834883682892
0.33410601563828
-0.00067726223888566
0.3342773519123
-0.00070768419446919
0.33445573932851
-0.00073765990884298
0.33464179061061
-0.00077016778279602
0.33483497744871
-0.00080076612433792
0.33503645297897
-0.00083601026401488
0.33524492370176
-0.00086641801670142
0.33546280495902
-0.00090634462728015
0.33568714659398
-0.0009351393802713
-0.00098359388852409
0.33592303629124
0.31361052532613
-2.2633712763652e-05
0.31362395757932
-6.7814388957544e-05
0.31364625704717
-0.00011294652390574
0.31367731807141
-0.00015783759836847
0.31371705931835
-0.00020245322834579
0.31376540893088
-0.00024672674591747
0.31382229752932
-0.00029060963915686
0.31388765909546
-0.00033409035486663
0.31396142496042
-0.0003771501765477
0.31404352714288
-0.00041979758808464
0.31413388672501
-0.00046199785100039
0.31423241468851
-0.00050372110814984
0.31433897478554
-0.00054476684147455
0.31445339182985
-0.00058496886823406
0.31457541029341
-0.00062397554883952
0.31470477530398
-0.00066181741997903
0.31484118972104
-0.00069833719554376
0.31498449051838
-0.00073420667287889
0.31513449457983
-0.00076937342979851
0.31529128768238
-0.00080514198055226
0.31545479379971
-0.00084076839623392
0.31562535216425
-0.00087824259863467
0.31580277916446
-0.00091508694780663
0.31598768090198
-0.00095506955896865
0.31617947439151
-0.00099255965190213
0.31637932758192
-0.0010358634925973
0.31658584417464
-0.0010729346471679
0.31680152249628
-0.0011220229864229
0.31702319000253
-0.0011568069224285
-0.0012166182565328
0.3172562143328
0.29600919072264
-2.7122635131664e-05
0.29602272032958
-8.1344059010435e-05
0.29604514012528
-0.00013536638268251
0.29607630831155
-0.00018900584696287
0.29611612748503
-0.00024227246270797
0.2961645249323
-0.00029512425268669
0.29622143913
-0.00034752389456629
0.29628681650138
-0.0003994677824266
0.29636060227726
-0.00045093600666664
0.29644274230612
-0.00050193766961863
0.29653316931685
-0.00055242491238519
0.29663180340304
-0.00060235524344607
0.29673851260083
-0.00065147608638427
0.29685312168728
-0.00069957800036739
0.29697536799139
-0.00074622189678345
0.29710498536956
-0.00079143484074472
0.29724165868826
-0.00083501055519761
0.29738520707993
-0.00087775510454255
0.29753542478592
-0.00091959117438358
0.2976923805037
-0.00096209773627678
0.29785597383876
-0.0010043617680992
0.2980265303258
-0.0010487991221197
0.29820383420118
-0.0010923908587614
0.29838848312496
-0.0011397185182402
0.29857983939293
-0.0011839159547047
0.29877908305382
-0.0012351071884688
0.29898470833218
-0.0012785599600538
0.29919929926958
-0.0013366139581091
0.29941943595033
-0.0013769436359579
-0.0014479697427407
0.29965078740183
0.27939573570103
-3.1623870137324e-05
0.27940933975623
-9.4948171134101e-05
0.27943184037657
-0.00015786705979837
0.27946305934417
-0.0002202248705874
0.27950288441076
-0.00028209758391243
0.27955124439299
-0.00034348428823314
0.27960808881176
-0.00040436836495332
0.27967338034469
-0.00046475936554471
0.27974708253214
-0.00052463824245908
0.27982915992256
-0.00058401510691193
0.27991956220038
-0.00064282723515358
0.28001822402155
-0.00070101710813712
0.28012502339754
-0.00075827550400033
0.28023979046106
-0.00081434510420404
0.28036226097809
-0.0008686924523613
0.28049216229378
-0.00092133619388569
0.28062916659961
-0.00097201489692203
0.28077307900509
-0.0010216675450958
0.2809236763887
-0.0010701885917523
0.28108101281593
-0.0011194341967596
0.28124496888642
-0.0011683178708073
0.28141585656326
-0.0012196868309661
0.28159343316586
-0.0012699674926011
0.28177828489406
-0.0013245702777599
0.28196972385909
-0.0013753549505142
0.28216893637705
-0.0014343197375241
0.28237430871259
-0.0014839323263424
0.28258850724924
-0.0015508125254692
0.28280785513033
-0.0015962915465044
-0.0016784550856147
0.28303834044165
0.2637147019178
-3.6116387569213e-05
0.2637283188211
-0.00010856512676484
0.26375079795189
-0.00018034624274833
0.26378192550462
-0.00025135247482104
0.2638215759719
-0.00032174810146586
0.26386968216811
-0.00039159053362191
0.26392620794831
-0.0004608941928278
0.26399113622424
-0.00052968768792924
0.26406445353209
-0.0005979555951065
0.26414614832616
-0.00066570994451489
0.26423619306255
-0.00073287201332881
0.26433454302921
-0.00079936711532424
0.26444109290276
-0.00086482541631879
0.2645556847799
-0.0009289370189618
0.26467806027427
-0.00099106798268756
0.26480794689265
-0.0010512228472308
0.26494501201797
-0.0011090800557224
0.26508905261899
-0.0011657081788298
0.26523983619614
-0.0012209722003406
0.26539740618501
-0.001277004216574
0.26556163224632
-0.0013325439620052
0.26573281392872
-0.0013908685430283
0.26591069017866
-0.001447843771375
0.26609583320493
-0.0015097133328834
0.26628751401428
-0.0015670357880891
0.26648691923326
-0.0016337249849388
0.26669233489604
-0.0016893480170685
0.26690650307401
-0.0017649807312538
0.26712548861747
-0.0018152771165196
-0.0019085694209859
0.2673556029243
0.24891374627124
-4.0570013445611e-05
0.24892728542817
-0.0001221043307711
0.24894959402375
-0.00020265488521314
0.24898042446996
-0.00028218296736515
0.2490196399791
-0.00036096365581397
0.24906717981449
-0.00043913041328968
0.24912302522474
-0.00051673964598548
0.24918718299253
-0.00059384549760139
0.24925966699821
-0.00067043964116037
0.24934049448108
-0.00074653746666865
0.24942966633239
-0.00082204390232604
0.24952716452451
-0.00089686534405514
0.24963290744675
-0.00097056837356661
0.24974675637404
-0.0010427859802655
0.2498684673944
-0.0011127790355245
0.24999777622851
-0.0011805317129731
0.25013435533235
-0.0012456591898104
0.25027800118131
-0.0013093540573964
0.25042848225633
-0.0013714533037721
0.25058583702558
-0.0014343590138327
0.25074993486727
-0.0014966418307044
0.2509210654912
-0.0015619991938147
0.25109896107684
-0.0016257393830873
0.25128417879271
-0.0016949310748902
0.25147596159436
-0.0017588186152581
0.25167549092529
-0.001833254341623
0.25188096558922
-0.0018948227062461
0.25209519466337
-0.0019792098305365
0.25231399196421
-0.0020340744413219
-0.0021385654493378
0.25254398796662
0.23494346600925
-4.4948503521167e-05
0.23495681699756
-0.00013545536216989
0.23497877467754
-0.00022461260813479
0.23500906021165
-0.00031246854397978
0.23504752763058
-0.00039943111629164
0.23509412475769
-0.00048572758120562
0.23514885271952
-0.00057146764746083
0.23521174510873
-0.00065673792562812
0.23528284678421
-0.00074154135414124
0.23536220793151
-0.00082589865058678
0.2354498629429
-0.00090969894892358
0.23554582600906
-0.00099282844453042
0.23565004608555
-0.0010747884829332
0.23576241085624
-0.0011551507829874
0.23588270001357
-0.0012330682234755
0.236010666247
-0.001308497976304
0.23614599821028
-0.0013809911816906
0.23628850072002
-0.0014518565951732
0.23643795528205
-0.0015209078926731
0.23659440245598
-0.0015908062142518
0.23675772396785
-0.0016599633680725
0.23692820394786
-0.0017324791991374
0.23710558195856
-0.0018031174182535
0.23729040092547
-0.0018797500662698
0.23748189215441
-0.0019503098679462
0.23768122853246
-0.002032590743536
0.23788653955379
-0.0021001337507934
0.23810069267317
-0.0021933629729033
0.2383192668559
-0.0022526486458167
-0.0023684991523179
0.2385492005353
0.22175723361531
-4.9212365853706e-05
0.2217702747495
-0.00014849653548282
0.2217916841934
-0.00024602209105907
0.22182115477128
-0.00034193916054782
0.2218585333006
-0.00043680968348852
0.22190377775268
-0.00053097207057216
0.22195691086321
-0.00062460079426801
0.22201799503887
-0.00071782213692436
0.22208710871718
-0.00081065506693655
0.22216433808474
-0.0009031280519295
0.22224975503193
-0.00099511592866173
0.22234341047525
-0.0010864839196717
0.22244528998203
-0.0011766680202565
0.22255531423699
-0.0012651750677986
0.22267329544219
-0.00135104945727
0.2227990120176
-0.0014342145797072
0.2229321803489
-0.0015141595397923
0.22307262299576
-0.0015922992683541
0.22322014743543
-0.0016684323575862
0.22337480440056
-0.0017454632043087
0.22353650192772
-0.0018216609191947
0.22370552439553
-0.0019015016907509
0.22388163485619
-0.0019792279018937
0.22406536531309
-0.0020634805461314
0.22425595491614
-0.0021408994932167
0.22445456711376
-0.0022312029634521
0.22465928524148
-0.0023048519001086
0.22487302721791
-0.0024071049706482
0.22509116385309
-0.00247078530109
-0.0025982586199627
0.2253209232989
0.20931104113957
-5.3321589463494e-05
0.20932364721581
-0.00016110264778854
0.20934430731359
-0.00026668222485145
0.20937268873224
-0.00037032061498541
0.20940863275482
-0.00047275374118259
0.20945210848047
-0.000574447830902
0.20950316109928
-0.00067565344691143
0.20956188266791
-0.0007765437389018
0.20962838647304
-0.00087715890443606
0.20970279632771
-0.00097753793842562
0.20978522418136
-0.0010775438130596
0.20987576077526
-0.0011770205437509
0.20997443305169
-0.0012753403257381
0.21008120014326
-0.0013719421878715
0.21019591477305
-0.0014657641144215
0.21031838920285
-0.0015566890363693
0.21044837868073
-0.0016441490434348
0.21058573281535
-0.0017296534283352
0.21073029805599
-0.0018129976225489
0.21088214388883
-0.0018973090611665
0.21104121917298
-0.0019807362264151
0.21120781574895
-0.0020680982896162
0.21138173759446
-0.0021531497694413
0.21156351115036
-0.0022452541239927
0.2117524056294
-0.0023297939934212
0.2119495767449
-0.0024283741000899
0.21215309052274
-0.0025083656983093
0.21236590702163
-0.0026199214895133
0.21258322884494
-0.0026881071431319
-0.002827574372469
0.21281254457709
0.1975633532121
-5.7238302983785e-05
0.1975754033499
-0.00017315281899038
0.19759512131368
-0.00028640022204994
0.19762215117618
-0.00039735051077658
0.19765633017321
-0.00050693277092169
0.19769763897583
-0.00061575666592371
0.19774614510009
-0.00072415960285576
0.19780196983835
-0.00083236850847799
0.19786526117925
-0.00094045027581061
0.19793618062624
-0.0010484574154869
0.19801488110448
-0.0011562443204269
0.19810149461666
-0.0012636340846235
0.19819609259318
-0.0013699383299632
0.19829867651318
-0.0014745261351338
0.19840914616012
-0.0015762337876149
0.19852735447919
-0.0016748973812911
0.19865310551721
-0.0017699001063136
0.19878628445745
-0.0018628323930696
0.19892678887409
-0.0019535020627214
0.19907471543096
-0.0020452356412893
0.19923006805077
-0.0021360888685709
0.19939315389892
-0.0022311841599072
0.19956383593391
-0.0023238318257103
0.1997426421451
-0.0024240603563587
0.19992889651664
-0.0025160483853219
0.20012374980459
-0.0026232274083033
0.2003252863414
-0.0027099022545679
0.20053649755086
-0.0028311327179917
0.20075247508394
-0.0029040846939948
-0.0030560223603908
0.20098092305253
0.18647496704766
-6.0928010106288e-05
0.18648635305679
-0.0001845388595764
0.18650495440681
-0.00030500160360543
0.1865303954245
-0.00042279155994861
0.18656251060458
-0.00053904798200982
0.18660129189213
-0.00065453798424434
0.18664682808991
-0.00076969583077875
0.18669926822613
-0.00088480867456583
0.18675879354638
-0.00099997562518179
0.18682560175619
-0.0011152656541021
0.18689988598525
-0.0012305285774682
0.18698181915772
-0.001345567284741
0.18707151840237
-0.001459637601377
0.18716902959324
-0.0015720373524431
0.18727430416177
-0.0016815083816785
0.18738724083888
-0.0017878340836035
0.18750770053657
-0.0018903598282919
0.18763561109126
-0.0019907429717432
0.18777093170667
-0.0020888227011868
0.1879137937698
-0.0021880977271969
0.1880642693214
-0.0022865644420368
0.18822268858435
-0.0023896034444886
0.18838899149672
-0.0024901347588282
0.18856371500895
-0.0025987838891609
0.1887462650425
-0.0026985984385943
0.1889377901244
-0.0028147525097523
0.18913643687975
-0.0029085490286166
0.18934520980261
-0.0030399056590746
0.1895591719228
-0.0031180468311769
-0.0032830204449503
0.18978616998886
0.17600888178102
-6.4361059138089e-05
0.17601951204368
-0.00019516915226461
0.17603684768076
-0.00032233727086634
0.17606049732287
-0.00044644123221745
0.17609029397806
-0.00056884466693545
0.17612624008155
-0.00069048411727267
0.1761684437769
-0.00081189955506901
0.17621707917511
-0.00093344410146311
0.17627235800949
-0.0010552544875544
0.17633451136594
-0.0011774190382675
0.17640377021013
-0.0012997874486173
0.17648034624507
-0.0014221433463564
0.17656440152967
-0.0015436929118844
0.17665602640952
-0.0016636622579404
0.17675522629024
-0.0017807082872462
0.17686194874147
-0.00189455655941
0.17697611721066
-0.0020045283212221
0.17709770735613
-0.0021123331406826
0.1772267481831
-0.0022178635507388
0.17736341182463
-0.0023247613910211
0.17750784956999
-0.0024310022087801
0.17766042124064
-0.0025421751362251
0.17782116074925
-0.0026508742876297
0.17799062017064
-0.0027682433304774
0.17816831631162
-0.0028762945986213
0.17835539479385
-0.0030018310107706
0.17855012116909
-0.0031032754217944
0.17875547998036
-0.0032452644877543
0.1789666508496
-0.0033292177166728
-0.0035078139957228
0.17919144438262
0.16613017499303
-6.7514099227417e-05
0.1661399759592
-0.00020497014756503
0.16615592649189
-0.00033828783285838
0.16617762352207
-0.00046813829167037
0.1662048995966
-0.00059612077029614
0.16623776635601
-0.00072335090526786
0.1662763486202
-0.00085048184720818
0.16632084202359
-0.00097793753248296
0.16637148478665
-0.001105897277516
0.16642853715037
-0.0012344714285578
0.16649226400565
-0.0013635143297432
0.16656291229639
-0.001492791662661
0.16664068633081
-0.0016214669711686
0.1667257190872
-0.0017486950389558
0.16681806990036
-0.0018730591243389
0.16691773611654
-0.0019942227992862
0.16702470657457
-0.0021114988022071
0.16713900775598
-0.0022266343447679
0.16726074364178
-0.0023395994583883
0.1673901312341
-0.0024541490048404
0.16752740952526
-0.0025682805205404
0.16767297298841
-0.0026877386195759
0.16782696500611
-0.0028048663245872
0.16798995619536
-0.0029312345386028
0.16816160345448
-0.0030479418756977
0.16834303951659
-0.0031832670904702
0.16853271452663
-0.0032929504485565
0.16873347663823
-0.00344602661555
0.16894116320526
-0.0035369042988409
-0.0037293946675314
0.16916274386041
0.15680588494589
-7.0370381633563e-05
0.15681480260695
-0.00021388783725915
0.15682928102652
-0.00035276628116702
0.15684890922379
-0.00048776651753594
0.15687352003687
-0.00062073161139607
0.15690313265151
-0.00075296354749264
0.15693788529302
-0.00088523451552465
0.15697799088382
-0.0010180431495509
0.15702370929642
-0.001151615715518
0.15707532479775
-0.0012860869548046
0.15713313088492
-0.0014213204410377
0.15719740475904
-0.0015570655605644
0.15726838858187
-0.0016924508170931
0.15734625467534
-0.0018265611552949
0.15743111373778
-0.0019579182090138
0.15752301196354
-0.0020861210470899
0.15762200323227
-0.0022104900923086
0.15772816591862
-0.0023327970522202
0.15784168021448
-0.002453113774551
0.15796281045132
-0.0025752792615898
0.15809188761421
-0.0026973577024092
0.15822934475721
-0.0028251957810384
0.15837544764324
-0.0029509692280729
0.15853078866702
-0.0030865755793063
0.15869519573592
-0.0032123489605224
0.15886977930877
-0.0033578506787659
0.15905325055048
-0.0034764217048356
0.15924825959775
-0.0036410356768692
0.15945134377617
-0.0037399884904634
-0.0039466544031067
0.15966860349702
0.14800490046222
-7.2919940292273e-05
0.14801290103128
-0.0002218884350198
0.14802585339549
-0.00036571867402743
0.14804334233796
-0.00050525548820617
0.14806520160066
-0.00064259090138528
0.14809145604195
-0.00077921801524901
0.1481222537168
-0.00091603221570132
0.14815782022768
-0.0010536096848503
0.14819843153684
-0.0011922270479393
0.14824439009824
-0.0013320455386833
0.14829601166821
-0.0014729420325297
0.14835359792473
-0.0016146518381126
0.1484174227575
-0.0017562756701648
0.14848769346853
-0.0018968318863716
0.14856456736207
-0.0020347921220295
0.14864813735014
-0.0021696910544531
0.14873851818932
-0.0023008709501738
0.14883584018646
-0.0024301190677646
0.14894035536991
-0.0025576289756491
0.14905237780884
-0.0026873017176836
0.14917232720154
-0.002817307111319
0.14930068033946
-0.0029535489345116
0.14943782982542
-0.0030881187284794
0.14958439539129
-0.003233141158887
0.14974040214561
-0.0033683557274664
0.14990693082975
-0.0035243793748782
0.15008300126059
-0.003652492146748
0.15027108138714
-0.0038291158140318
0.15046817319179
-0.0039370803051583
-0.0041585859269536
0.15068010470402
0.1396978563474
-7.5159055067858e-05
0.13970492559879
-0.00022895771656579
0.13971633043568
-0.0003771235408675
0.13973165466312
-0.00052057974461815
0.13975073296121
-0.0006616692269171
0.13977359371356
-0.00080207879356303
0.13980039121193
-0.00094282973828775
0.13983135930104
-0.0010845777966784
0.13986678443782
-0.0012276522058007
0.13990698119456
-0.0013722423153182
0.13995228036226
-0.0015182412188929
0.14000300159532
-0.0016653730891131
0.14005944294313
-0.0018127170351143
0.14012184160619
-0.001959230566242
0.14019039441731
-0.0021033449494216
0.14026523888375
-0.0022445355369634
0.14034654269222
-0.002382174774165
0.14043448869844
-0.0025180650891999
0.14052938870278
-0.0026525289944523
0.14063161223502
-0.0027895252638233
0.14074165105485
-0.0029273459440091
0.14086003951251
-0.0030719374041826
0.14098728086097
-0.003215360087713
0.14112403986237
-0.0033699001700861
0.14127054680479
-0.0035148626784211
0.1414278565413
-0.0036816891190424
0.14159536316773
-0.003819998779891
0.14177535166979
-0.0040091043223704
0.14196508278205
-0.0041268114235081
-0.0043638556345321
0.14217035248193
0.13185703470053
-7.7089056361694e-05
0.13186317512308
-0.00023509817414777
0.13187304026731
-0.00038698872011282
0.13188621596979
-0.00053375548051598
0.13190253734148
-0.00067799062962791
0.13192203370406
-0.00082157518474454
0.13194486165171
-0.00096565771194316
0.13197125844004
-0.0011109746087439
0.13200151536493
-0.0012579091521966
0.13203595328785
-0.0014066802580495
0.13207491120778
-0.0015571991570642
0.13211872032797
-0.0017091822265664
0.13216769479884
-0.0018616915223283
0.13222209593958
-0.002013631722881
0.13228215157414
-0.002163400599325
0.13234804061958
-0.0023104245974881
0.1324199726145
-0.0024541067836277
0.13249818400723
-0.0025962764960844
0.13258302678143
-0.0027373717820023
0.13267493706043
-0.0028814355554305
0.13277444436177
-0.0030268532567629
0.1328821740795
-0.0031796671322149
0.13299868539783
-0.0033318714148532
0.13312474851346
-0.0034959632932059
0.13326072899313
-0.0036508431640359
0.13340772089184
-0.0038286810224858
0.13356553943211
-0.0039778173237585
0.13373636263654
-0.0041799275299498
0.13391764989494
-0.0043080986851756
-0.0045609613179199
0.13411475557334
0.12445627253599
-7.8715291492859e-05
0.12446149963924
-0.00024032532392316
0.12446985767968
-0.00039534680809378
0.12448093603093
-0.00054483387740853
0.12449456951145
-0.00069162415255297
0.12451078692752
-0.00083779263977576
0.12452974413227
-0.00098461495213763
0.12455167681767
-0.0011329073264781
0.1245768748451
-0.0012831072091239
0.1246056580212
-0.0014354634614542
0.12463836621457
-0.0015899073758419
0.12467533497394
-0.0017461510100915
0.12471688783748
-0.0019032444089341
0.12476330451313
-0.0020600484209872
0.1248148382417
-0.0022149343496919
0.12487170457451
-0.0023672909516885
0.12493414553387
-0.002516547763702
0.12500244551091
-0.0026645764932306
0.12507697665871
-0.0028119029488918
0.12515824567556
-0.0029627045902961
0.12524677845327
-0.0031153860509498
0.12534333604708
-0.0032762247409221
0.12544843831827
-0.0034369736989943
0.12556310853326
-0.0036106335192994
0.12568760474691
-0.0037753393867677
0.12582337793455
-0.0039644542174699
0.12597015812565
-0.0041245975206395
0.12613053805473
-0.0043403074640999
0.12630223657719
-0.0044797972128445
-0.0047498820999972
0.12649115735198
0.11747087696068
-8.0048527541994e-05
0.11747521930704
-0.00024466773777772
0.11748212653886
-0.00040225410981946
0.1174911888037
-0.00055389621033313
0.11750223984844
-0.00070267526160671
0.11751530779317
-0.00085086064459849
0.11753054531541
-0.00099985253021084
0.11754818320008
-0.0011505452632483
0.11756850639081
-0.0013034304486559
0.11759182708167
-0.0014587841985318
0.11761847886362
-0.001616559201884
0.11764879174047
-0.0017764639295109
0.11768309147454
-0.0019375441843229
0.11772166713808
-0.0020986241249476
0.11776479536259
-0.0022580626137688
0.11781271964785
-0.0024152152757461
0.11786571679645
-0.00256954495018
0.11792410062163
-0.0027229603552015
0.11798826560446
-0.0028760679671007
0.1180587552308
-0.0030331942502909
0.11813609271535
-0.0031927235670187
0.11822115049849
-0.0033612825531608
0.11831436901056
-0.0035301922375306
0.11841713489757
-0.0037133994300596
0.118529320472
-0.0038875249822578
0.11865336885901
-0.0040885026229333
0.11878757108017
-0.0042587997580099
0.11893677709345
-0.0044895134921373
0.1190961542399
-0.0046391743737817
-0.0049328172531915
0.11927908937577
0.11087754680123
-8.1110508946043e-05
0.11088105471161
-0.00024817574443686
0.11088659684734
-0.00040779634532053
0.11089375613035
-0.00056105559128534
0.11090236686296
-0.00071128608803596
0.11091245638197
-0.00086095025274606
0.11092416988479
-0.00101156611755
0.11093772731808
-0.0011641027770705
0.1109534067857
-0.0013191099933521
0.11097150993036
-0.0014768874176026
0.11099236233629
-0.0016374116799804
0.11101628345205
-0.0018003851157976
0.11104360040192
-0.0019648612032265
0.11107460582612
-0.0021296296170728
0.11110959815352
-0.0022930550078202
0.11114882884356
-0.0024544460313523
0.11119261247875
-0.0026133286494087
0.11124125144022
-0.0027715993791399
0.11129520128368
-0.0029300178707666
0.1113549465609
-0.0030929395852014
0.11142113538428
-0.0032589124447756
0.11149451972217
-0.0034346669419831
0.11157575672534
-0.0036114292876982
0.11166613008751
-0.0038037728355828
0.11176567261608
-0.0039870675503195
0.11187730414773
-0.0042001341905051
0.11199848900874
-0.0043799846514222
0.11213616271127
-0.0046271872246323
0.11227945570082
-0.0047824673919771
-0.0051121478389211
0.11245878625389
0.10465428304838
-8.1927696436519e-05
0.10465704141118
-0.00025093423397944
0.10466132631493
-0.00041208137809327
0.10466672043705
-0.00056644984010352
0.10467306335791
-0.00071762913138446
0.10468037594757
-0.00086826296019948
0.1046887938763
-0.0010199841596606
0.10469852042715
-0.00117382943749
0.10470982292148
-0.001330412594124
0.10472299687022
-0.0014900614702536
0.10473834971065
-0.0016527646223076
0.10475618226819
-0.0018182177734937
0.10477682319491
-0.0019855022286154
0.1048005775179
-0.0021533840372143
0.10482777907883
-0.0023202566644603
0.10485868583658
-0.0024853528830505
0.1048936479037
-0.0026482908085926
0.10493290153799
-0.002810853102919
0.1049769782149
-0.0029740946341599
0.10502616944687
-0.0031421308996351
0.10508141853017
-0.0033141616060169
0.1051429818876
-0.0034962303719912
0.10521239217985
-0.0036808396473128
0.1052895938766
-0.0038809745943927
0.10537680444728
-0.0040742781781663
0.10547374477541
-0.0042970745706088
0.10558289547382
-0.0044891353971669
0.10570704829022
-0.0047513400844145
0.10584205338614
-0.0049174725291429
-0.0052791340415722
0.10600903954139
0.09878025315821
-8.2462717225669e-05
0.098782345051999
-0.00025302627464821
0.098785437851032
-0.00041517432497338
0.098789217768204
-0.00057022990259378
0.098793508306754
-0.00072191981138894
0.098798317000527
-0.00087307179147175
0.098803778662359
-0.0010254459553645
0.098810084297908
-0.0011801352040506
0.098817485604987
-0.0013378140298733
0.098826236377167
-0.0014988123694176
0.098836606382295
-0.001663134752887
0.098848850735328
-0.0018304622507869
0.098863257603731
-0.0019999092198869
0.098880120814558
-0.002170247369656
0.09889981475382
-0.0023399507236259
0.098922654503704
-0.0025081927510909
0.09894907171361
-0.0026747081341026
0.098979296766865
-0.0028410782687898
0.099013940672659
-0.0030087386482062
0.099053101921339
-0.0031812922513114
0.099097997463706
-0.0033590572445901
0.099148348684694
-0.0035465816820305
0.099206781909735
-0.0037392729537977
0.099271395750837
-0.003945588510037
0.09934794057397
-0.0041508230690344
0.099429871971917
-0.0043790060297179
0.099529631779466
-0.0045888952594756
0.099632622351072
-0.0048543307063343
0.099761929625756
-0.0050467798532021
0.099941000409508
-0.0054582048808899
0.39445097126264
0.0046362894015804
0.38997781144605
0.0044731597848734
0.38567258943148
0.0043052219835338
0.38153993080059
0.0041326585998718
0.37758424490191
0.0039556858677469
0.3738097238983
0.0037745209722996
0.37022033950677
0.0035893843600782
0.36681984247831
0.0034004969964308
0.36361176720352
0.0032080752424876
0.36059943925106
0.0030123279194686
0.3577859840905
0.0028134551272183
0.35517433454938
0.0026116495069794
0.35276723706368
0.0024070974511472
0.35056725550602
0.0021999815221967
0.34857677399199
0.0019904814781036
0.34679799816934
0.0017787757857416
0.34523295622525
0.0015650419066686
0.34388349943655
0.0013494567501935
0.34275130224299
0.0011321971544941
0.34183786174235
0.00091344046039976
0.34114449399195
0.00069336770952816
0.34067232546092
0.0004721684888926
0.34042226131915
0.00025006409893624
0.34039470910242
2.7552172533417e-05
0.34059097089536
-0.00019626183786874
0.34101103347853
-0.00042006262952404
0.34165498950636
-0.00064395607492131
0.34252273714029
-0.00086774768241096
0.34361392693389
-0.0010911898427317
0.34492795212816
-0.0013140252446452
0.34646394610057