/*--------------------------------*- C++ -*----------------------------------*\
| =========                 |                                                 |
| \\      /  F ield         | OpenFOAM: The Open Source CFD Toolbox           |
|  \\    /   O peration     | Version:  2112                                  |
|   \\  /    A nd           | Website:  www.openfoam.com                      |
|    \\/     M anipulation  |                                                 |
\*---------------------------------------------------------------------------*/
FoamFile
{
    version     2.0;
    format      ascii;
    arch        "LSB;label=32;scalar=64";
    class       volVectorField;
    location    "7.8";
    object      U;
}
// * * * * * * * * * * * * * * * * * * * * * * * * * * * * * * * * * * * * * //

dimensions      [0 1 -1 0 0 0 0];

internalField   nonuniform List<vector> 
22000
(
(1.0000010003704 -2.48661192482e-05 0)
(1.0000255883312 -7.4156447069073e-05 0)
(1.0000728138766 -0.00012327573212446 0)
(1.0001437277393 -0.00017227043465618 0)
(1.0002387674156 -0.0002210226267697 0)
(1.0003578072411 -0.00026939242546902 0)
(1.000500462677 -0.00031728965896189 0)
(1.0006663538468 -0.00036468509035501 0)
(1.0008551670124 -0.0004115587356434 0)
(1.0010666598554 -0.00045792834090926 0)
(1.0013006114822 -0.00050377603991075 0)
(1.0015568118005 -0.0005490934152882 0)
(1.0018349698494 -0.00059370445866632 0)
(1.0021347284208 -0.00063747411730847 0)
(1.0024555606816 -0.00068008342372605 0)
(1.0027969164736 -0.00072160846471021 0)
(1.0031581469318 -0.00076192195296184 0)
(1.0035388535099 -0.00080174793012627 0)
(1.003938675952 -0.00084103093604792 0)
(1.0043577878651 -0.00088114087749105 0)
(1.0047962551826 -0.00092126878393009 0)
(1.0052548336766 -0.00096353382743929 0)
(1.0057336491338 -0.0010052832198476 0)
(1.0062338401725 -0.0010505759660115 0)
(1.006755110135 -0.0010933780629382 0)
(1.0072991529 -0.0011426142137583 0)
(1.0078649162841 -0.0011853702689085 0)
(1.0084553950598 -0.0012411219336289 0)
(1.0090682523371 -0.0012818187376108 0)
(1.0097089894052 -0.0013491874802102 0)
(1.0000004692363 -7.3326367336565e-05 0)
(1.000025260425 -0.00021889995910482 0)
(1.0000731627805 -0.00036408781539551 0)
(1.0001451038037 -0.00050897447735519 0)
(1.0002415296031 -0.00065318948956269 0)
(1.0003623702567 -0.0007963124385238 0)
(1.0005072799623 -0.00093807760263434 0)
(1.0006759015954 -0.0010783988270605 0)
(1.0008679155868 -0.001217214816529 0)
(1.0010830849876 -0.0013545722387569 0)
(1.0013211683425 -0.0014904128482213 0)
(1.0015819696806 -0.0016246965911247 0)
(1.0018651560962 -0.0017568808877256 0)
(1.0021703905663 -0.0018865213366346 0)
(1.0024970463127 -0.0020126370400868 0)
(1.002844610026 -0.0021354007709706 0)
(1.0032122475142 -0.0022544401858512 0)
(1.0035996870981 -0.0023718732399522 0)
(1.0040062602585 -0.0024876204607158 0)
(1.0044324910119 -0.0026056932588341 0)
(1.0048778795099 -0.0027238592386576 0)
(1.0053439761369 -0.0028482086492084 0)
(1.0058297402341 -0.002971194109865 0)
(1.0063380096841 -0.0031043497193836 0)
(1.0068659956738 -0.0032305261501936 0)
(1.0074190396876 -0.0033750557343683 0)
(1.0079907684244 -0.0035014141184308 0)
(1.0085920133737 -0.0036647879534218 0)
(1.0092091995343 -0.0037860389717585 0)
(1.0098644652298 -0.0039830455482319 0)
(1.0000004848375 -0.00012025898316533 0)
(1.0000265615568 -0.00035936357372261 0)
(1.0000768248537 -0.00059780930205537 0)
(1.0001520811619 -0.00083570658892351 0)
(1.0002526884192 -0.0010724961216908 0)
(1.0003785483566 -0.0013075265028966 0)
(1.0005293117029 -0.001540382340696 0)
(1.000704638543 -0.0017709301514498 0)
(1.0009042077179 -0.0019990641210637 0)
(1.0011277994085 -0.0022248500044449 0)
(1.0013751510014 -0.0024481716566114 0)
(1.0016460889322 -0.0026689386633084 0)
(1.0019402261348 -0.00288621450879 0)
(1.0022572583345 -0.0030992182486372 0)
(1.0025964339185 -0.0033062671647423 0)
(1.0029573043621 -0.0035076003207269 0)
(1.0033387935239 -0.0037025605698592 0)
(1.0037408161655 -0.0038946494590996 0)
(1.0041622659535 -0.004083738526674 0)
(1.0046041670098 -0.0042764994396845 0)
(1.0050651640223 -0.0044692498623565 0)
(1.0055479928854 -0.0046720904465323 0)
(1.0060497712816 -0.0048725154561254 0)
(1.0065760349474 -0.0050896146496698 0)
(1.0071198679708 -0.0052949718391867 0)
(1.0076927394279 -0.0055305531627081 0)
(1.008278981174 -0.0057358389533651 0)
(1.0089032785632 -0.0060023925249031 0)
(1.0095314080789 -0.0061989102681642 0)
(1.0102164774159 -0.0065213233645674 0)
(1.0000004842169 -0.00016685766812035 0)
(1.0000280881295 -0.00049901221719869 0)
(1.0000812730154 -0.00082986717459189 0)
(1.0001607683359 -0.0011596131775994 0)
(1.0002668563729 -0.0014876652216915 0)
(1.0003993971074 -0.0018132559346935 0)
(1.0005580166128 -0.0021358775394573 0)
(1.0007423846622 -0.0024553738871834 0)
(1.0009521749812 -0.0027715977162588 0)
(1.0011871942053 -0.0030846274267812 0)
(1.0014471554672 -0.0033942678520251 0)
(1.0017319164073 -0.0037003600153166 0)
(1.0020410157631 -0.0040015453860024 0)
(1.0023741905811 -0.004296693938244 0)
(1.0027305217792 -0.0045833878651782 0)
(1.0031096490185 -0.0048619227807396 0)
(1.0035101761424 -0.0051313052274005 0)
(1.0039322730328 -0.0053964190279067 0)
(1.0043742501487 -0.0056570167305978 0)
(1.0048378105381 -0.005922464674464 0)
(1.0053204408204 -0.0061875363461936 0)
(1.005826493796 -0.0064664481029804 0)
(1.0063505644199 -0.0067415703373376 0)
(1.006901903729 -0.0070397824601191 0)
(1.0074678902802 -0.0073210301510147 0)
(1.0080685165487 -0.0076444408803819 0)
(1.0086751654241 -0.0079245981377924 0)
(1.0093319369792 -0.0082907756953092 0)
(1.0099756782547 -0.0085572516076523 0)
(1.0107030923855 -0.0090015616845066 0)
(1.0000004811349 -0.00021342268519097 0)
(1.0000298775246 -0.00063886186005329 0)
(1.0000864943995 -0.0010619935581717 0)
(1.0001709698201 -0.0014831155576214 0)
(1.0002835024714 -0.0019017913419437 0)
(1.0004239089843 -0.0023172729422196 0)
(1.0005917906534 -0.0027290348144954 0)
(1.0007868343114 -0.0031369339823444 0)
(1.0010087152089 -0.0035407892100457 0)
(1.0012572823877 -0.0039406866114428 0)
(1.0015322326478 -0.0043363282997649 0)
(1.0018334745561 -0.0047274624571233 0)
(1.0021604718839 -0.0051122630370648 0)
(1.0025130222067 -0.0054892149804257 0)
(1.0028900154004 -0.0058550997278902 0)
(1.0032912002458 -0.0062102383938572 0)
(1.0037147999361 -0.006553232722415 0)
(1.0041612898814 -0.0068903592127326 0)
(1.0046282785847 -0.0072211892953539 0)
(1.005118293266 -0.0075578552790984 0)
(1.0056274115299 -0.007893489407028 0)
(1.0061619745776 -0.0082465667595039 0)
(1.0067134605515 -0.0085941179874271 0)
(1.0072957431688 -0.0089711059721233 0)
(1.0078890577214 -0.0093253462308773 0)
(1.0085241168203 -0.009733832083737 0)
(1.0091559278201 -0.010085080583594 0)
(1.0098532157668 -0.010547898363479 0)
(1.0105159914366 -0.010879206704571 0)
(1.0112965456487 -0.011442945032818 0)
(1.0000004738506 -0.00026011570582629 0)
(1.0000318394085 -0.00077944556379046 0)
(1.0000922241875 -0.0012950700328525 0)
(1.0001821504492 -0.0018074291582125 0)
(1.0003017189139 -0.0023164274657871 0)
(1.000450703723 -0.0028214844645328 0)
(1.0006286903666 -0.003322139792816 0)
(1.0008353988413 -0.0038183055994555 0)
(1.0010705205612 -0.0043097778771998 0)
(1.0013339662322 -0.0047966475542135 0)
(1.0016254298113 -0.005278490147741 0)
(1.0019448909948 -0.0057549350674132 0)
(1.0022917460565 -0.0062236392128701 0)
(1.0026658716193 -0.0066826606957771 0)
(1.0030659591886 -0.007127907825692 0)
(1.0034918857431 -0.0075596895266969 0)
(1.0039414618412 -0.0079761320131482 0)
(1.0044155081405 -0.008384912783053 0)
(1.0049108546544 -0.0087853659703867 0)
(1.005430964778 -0.0091924589931282 0)
(1.0059703183921 -0.0095975939785018 0)
(1.0065375458798 -0.010023637147181 0)
(1.0071205168201 -0.010442065395628 0)
(1.0077385087068 -0.010896207347316 0)
(1.0083633449474 -0.011321235787304 0)
(1.0090384354895 -0.011812747131492 0)
(1.0096992792872 -0.012231907081603 0)
(1.0104440337486 -0.012789097264644 0)
(1.0111285157333 -0.013180483716697 0)
(1.0119718297125 -0.013862015425716 0)
(1.000000460376 -0.00030693337847813 0)
(1.00003386974 -0.00092077577074045 0)
(1.0000981631026 -0.0015291009161941 0)
(1.0001937223857 -0.0021325354453608 0)
(1.0003205370821 -0.0027315362261166 0)
(1.0004783406124 -0.0033258531422304 0)
(1.0006667141384 -0.0039151848673993 0)
(1.0008854290271 -0.0044995491800729 0)
(1.0011342122476 -0.005078737468215 0)
(1.0014130585209 -0.0056528473699739 0)
(1.0017216803245 -0.006221307200944 0)
(1.0020601521913 -0.0067836017936481 0)
(1.0024278230909 -0.0073368208914445 0)
(1.0028246700604 -0.0078785484733276 0)
(1.0032491987456 -0.0084037446818391 0)
(1.0037014320885 -0.0089126585926136 0)
(1.0041787654605 -0.0094028716827051 0)
(1.0046823920941 -0.009883457600217 0)
(1.0052083299105 -0.010353468576926 0)
(1.0057610562753 -0.010830753953942 0)
(1.0063333291176 -0.011304921096465 0)
(1.0069363005628 -0.011803317132831 0)
(1.0075538412158 -0.01229169219808 0)
(1.0082112888227 -0.0128219540008 0)
(1.0088709616225 -0.013316177964439 0)
(1.009590718677 -0.013889222021221 0)
(1.0102837271993 -0.014373654511153 0)
(1.0110819665151 -0.015023466353721 0)
(1.0117903097462 -0.015470537953504 0)
(1.0127050471903 -0.016268768342745 0)
(1.0000004396545 -0.00035372687811495 0)
(1.0000358658015 -0.0010624163121558 0)
(1.0001040130479 -0.0017633509228693 0)
(1.0002050984128 -0.0024573964760087 0)
(1.000338988027 -0.0031457881685632 0)
(1.0005053778902 -0.0038287818952119 0)
(1.0007038594019 -0.0045063392874713 0)
(1.000934275902 -0.0051786418837651 0)
(1.0011964143561 -0.0058455013583068 0)
(1.0014903787589 -0.0065070285678919 0)
(1.0018159291892 -0.0071624889614773 0)
(1.0021732612417 -0.0078111987179294 0)
(1.0025617083613 -0.0084496346966655 0)
(1.0029813702184 -0.0090748576135186 0)
(1.0034305973525 -0.0096808099386749 0)
(1.0039095737042 -0.010267625513382 0)
(1.0044153051651 -0.010832281444046 0)
(1.0049493730485 -0.011385224691334 0)
(1.0055069909886 -0.011925199997979 0)
(1.006093698206 -0.012472949728875 0)
(1.0067004685367 -0.013016258982596 0)
(1.0073411471879 -0.013586981682503 0)
(1.0079953157109 -0.014145034498868 0)
(1.0086949177619 -0.014751015846538 0)
(1.0093918368202 -0.015313550058468 0)
(1.0101599282062 -0.015967280039231 0)
(1.0108875120286 -0.016515039339873 0)
(1.0117443547073 -0.017256360883415 0)
(1.0124782762306 -0.017755295444983 0)
(1.0134721894679 -0.018669801153592 0)
(1.0000004103989 -0.00040023650874269 0)
(1.0000377275413 -0.0012035870766066 0)
(1.0001094834834 -0.0019965205442031 0)
(1.0002157061277 -0.0027802010420581 0)
(1.0003561284078 -0.0035568765870456 0)
(1.0005304141708 -0.0043274930280724 0)
(1.0007381823846 -0.0050923868469797 0)
(1.0009793699776 -0.0058519683327359 0)
(1.0012538515929 -0.0066061019674813 0)
(1.0015618665944 -0.0073549241501618 0)
(1.0019032575793 -0.0080975295089789 0)
(1.0022783681707 -0.0088330453415641 0)
(1.0026865581015 -0.0095572988403901 0)
(1.0031280718642 -0.010266779151945 0)
(1.0036011528923 -0.010954353418027 0)
(1.0041061589237 -0.011619977983774 0)
(1.004639759291 -0.012259981797771 0)
(1.0052039296032 -0.012886139781552 0)
(1.005793126863 -0.013496888776672 0)
(1.0064139757535 -0.014115828844367 0)
(1.0070556618643 -0.01472894297758 0)
(1.0077348464954 -0.01537253750145 0)
(1.0084266204424 -0.016000675984163 0)
(1.0091699840829 -0.016682631552246 0)
(1.0099056161596 -0.017313361127568 0)
(1.0107247175494 -0.018047635331091 0)
(1.0114885554269 -0.018657589104914 0)
(1.012408210121 -0.019490034125632 0)
(1.0131690411467 -0.020037768969964 0)
(1.0142489682779 -0.02106887313079 0)
(1.0000003719309 -0.00044612430779805 0)
(1.0000393604786 -0.0013432634341617 0)
(1.000114299177 -0.002226910760412 0)
(1.0002250047836 -0.00309859274385 0)
(1.0003710696118 -0.003961807106045 0)
(1.0005521315633 -0.0048183772492804 0)
(1.0007678556796 -0.0056691319904006 0)
(1.0010182934202 -0.0065147811374302 0)
(1.0013034364977 -0.0073552823181413 0)
(1.0016236851792 -0.0081908157185345 0)
(1.0019790037909 -0.0090203062751478 0)
(1.0023699103082 -0.0098426767486033 0)
(1.0027958407272 -0.010653079998351 0)
(1.0032572057093 -0.011447388062219 0)
(1.0037522045084 -0.012217352453583 0)
(1.0042813795733 -0.012962684560033 0)
(1.0048411404603 -0.013679043432459 0)
(1.0054338570624 -0.014379462512419 0)
(1.0060533115811 -0.015062101496009 0)
(1.006707221401 -0.015753331353045 0)
(1.0073830291565 -0.016437409090391 0)
(1.0081002975138 -0.017154951646809 0)
(1.0088295058381 -0.017854250151375 0)
(1.0096170827439 -0.018613098666717 0)
(1.0103918767308 -0.019312727855569 0)
(1.011263599619 -0.020128175626566 0)
(1.0120645871708 -0.020800125168848 0)
(1.0130502834868 -0.021724150179983 0)
(1.0138389795416 -0.022318586021955 0)
(1.0150107863599 -0.023467487728142 0)
(1.0000003236447 -0.00049100496471415 0)
(1.0000406784809 -0.0014802690217855 0)
(1.000118209488 -0.0024525765750757 0)
(1.0002325031987 -0.0034098829716743 0)
(1.0003830067612 -0.0043571684696241 0)
(1.0005693386177 -0.0052973202373581 0)
(1.0007912279731 -0.0062317795740951 0)
(1.0010488595216 -0.0071616304554204 0)
(1.0013423715703 -0.008086970892212 0)
(1.0016723487583 -0.0090080483197273 0)
(1.0020389183577 -0.0099236288646277 0)
(1.0024427964588 -0.010832420170005 0)
(1.0028835504759 -0.011728891114547 0)
(1.0033617765612 -0.012608256000391 0)
(1.0038757038038 -0.013461132664972 0)
(1.0044260688704 -0.014286917426318 0)
(1.0050091170765 -0.015080604989831 0)
(1.0056276095736 -0.015856394435703 0)
(1.0062747628188 -0.016612234822525 0)
(1.0069593851326 -0.017377129140095 0)
(1.007667260364 -0.01813374505825 0)
(1.0084209156976 -0.018926780884107 0)
(1.0091861627249 -0.01969894256354 0)
(1.0100171668446 -0.020536253175495 0)
(1.010830465695 -0.021306325163566 0)
(1.0117552617893 -0.022204393086555 0)
(1.0125934294259 -0.022939170448478 0)
(1.0136473107605 -0.023956178079943 0)
(1.0144644260321 -0.024596379036773 0)
(1.015732889718 -0.025865282361855 0)
(1.0000002653498 -0.00053447426423029 0)
(1.0000416075205 -0.0016133627258674 0)
(1.0001209973253 -0.002671471002447 0)
(1.0002377772553 -0.0037112493253015 0)
(1.0003912480807 -0.0047393832250902 0)
(1.0005810140773 -0.0057600037634808 0)
(1.0008068847633 -0.0067752846484431 0)
(1.0010691931732 -0.0077867600686977 0)
(1.0013682519776 -0.0087947209466589 0)
(1.0017048497431 -0.0097995095177293 0)
(1.002079317034 -0.010799753706337 0)
(1.0024925875001 -0.011793940946907 0)
(1.0029444169803 -0.012775863549439 0)
(1.0034356034269 -0.01374004397419 0)
(1.0039644863008 -0.014675974150247 0)
(1.0045320052268 -0.0155826650626 0)
(1.0051343488622 -0.016454483221906 0)
(1.0057746672365 -0.017306679498146 0)
(1.0064457377577 -0.018137097175087 0)
(1.0071574572621 -0.018977183216349 0)
(1.0078940617439 -0.019808214784225 0)
(1.0086810943809 -0.020678661103538 0)
(1.0094796984675 -0.021525937764647 0)
(1.0103520333142 -0.022443874609547 0)
(1.011201979925 -0.023286745762961 0)
(1.0121790269237 -0.024269699576386 0)
(1.0130534423352 -0.025069224908588 0)
(1.0141764186689 -0.026181626453355 0)
(1.015022032142 -0.026868003609952 0)
(1.0163906761041 -0.028260210375963 0)
(1.0000001973895 -0.00057613522004543 0)
(1.0000420903096 -0.0017413205088784 0)
(1.0001224927974 -0.0028815796512191 0)
(1.0002404947013 -0.0039999195650368 0)
(1.0003952505173 -0.0051049385311283 0)
(1.0005863537139 -0.0062021817078264 0)
(1.0008137076955 -0.007294672004973 0)
(1.0010778047669 -0.0083844685196754 0)
(1.0013791565429 -0.0094721113336539 0)
(1.001718769607 -0.010558067825096 0)
(1.0020972144877 -0.011640857629921 0)
(1.0025156561282 -0.012718748372548 0)
(1.0029740939527 -0.013784880724715 0)
(1.0034735401372 -0.014833058871479 0)
(1.0040125263259 -0.015851684215421 0)
(1.0045922033893 -0.016839314156326 0)
(1.0052088152672 -0.017789755431655 0)
(1.0058659020612 -0.01871917983237 0)
(1.006555936243 -0.019625468338673 0)
(1.0072899060184 -0.020542280833032 0)
(1.0080506247664 -0.021449764660627 0)
(1.0088667027154 -0.022399777916301 0)
(1.0096946551664 -0.023324847147585 0)
(1.0106048478699 -0.024326067531151 0)
(1.0114883041198 -0.025244833053418 0)
(1.0125153899531 -0.026315705473475 0)
(1.0134240428377 -0.02718299858698 0)
(1.014615621005 -0.028394213403123 0)
(1.0154892244685 -0.029128679265815 0)
(1.0169601096163 -0.030648606469553 0)
(1.0000001204711 -0.00061561932883275 0)
(1.0000420871999 -0.0018629977143519 0)
(1.0001225812827 -0.0030810214412513 0)
(1.0002404314782 -0.0042733108963983 0)
(1.0003946438528 -0.0054505653421013 0)
(1.0005848020218 -0.0066198998191139 0)
(1.000810915037 -0.0077852960934377 0)
(1.0010736414796 -0.0089494087738841 0)
(1.0013737117766 -0.010113085171445 0)
(1.0017123581113 -0.01127694940758 0)
(1.0020904219025 -0.012439451182468 0)
(1.0025093065772 -0.013598643536972 0)
(1.0029693046119 -0.014747057327776 0)
(1.0034716500559 -0.015877760339586 0)
(1.0040151440321 -0.016978126073968 0)
(1.0046011565619 -0.018046194304704 0)
(1.0052260953232 -0.019075312571504 0)
(1.0058938972324 -0.020082430059515 0)
(1.0065968605204 -0.021065646099152 0)
(1.0073470776462 -0.022060567454475 0)
(1.0081260673062 -0.023046531585559 0)
(1.0089655600562 -0.024078342480341 0)
(1.0098175199497 -0.025084144876975 0)
(1.0107606860482 -0.02617164752906 0)
(1.0116731667852 -0.027170014290472 0)
(1.0127465783673 -0.028332485295015 0)
(1.013686274918 -0.02927162624616 0)
(1.0149443801745 -0.030586003132941 0)
(1.0158447374676 -0.03137209817208 0)
(1.0174182496517 -0.033025170305514 0)
(1.0000000352516 -0.00065260064043762 0)
(1.0000415757689 -0.0019773702128052 0)
(1.0001211996053 -0.0032681193979657 0)
(1.0002374623303 -0.0045291333950053 0)
(1.0003892187653 -0.0057733756996994 0)
(1.0005760435064 -0.0070096673500715 0)
(1.0007980602993 -0.0082430477490929 0)
(1.0010560955571 -0.0094768308913056 0)
(1.0013511118597 -0.010712228698224 0)
(1.0016845670935 -0.011950053152992 0)
(1.0020575965058 -0.013188729008729 0)
(1.0024718420945 -0.014426103911418 0)
(1.0029279300114 -0.015654156213926 0)
(1.0034273186244 -0.016865207839313 0)
(1.0039691457824 -0.01804569223037 0)
(1.0045550080028 -0.019193073709129 0)
(1.0051815741475 -0.020300370790253 0)
(1.005853190856 -0.021385158591532 0)
(1.0065621005116 -0.022445969560853 0)
(1.0073215238038 -0.02352006460888 0)
(1.0081118057496 -0.024586346920788 0)
(1.0089678541803 -0.025702072164267 0)
(1.0098371868174 -0.026791617401439 0)
(1.0108070268999 -0.027968543197602 0)
(1.0117426722323 -0.029050649459968 0)
(1.0128571028691 -0.030308845517838 0)
(1.0138233567519 -0.031324873190141 0)
(1.015144141041 -0.032747491520084 0)
(1.0160691849908 -0.033590632177272 0)
(1.0177438582843 -0.035382963458427 0)
(0.99999994298913 -0.00068680710756856 0)
(1.0000405516121 -0.0020835749561449 0)
(1.0001183298907 -0.0034414702079183 0)
(1.0002315513286 -0.0047654847282245 0)
(1.0003789184645 -0.0060709803375301 0)
(1.0005599955008 -0.0073685974513559 0)
(1.0007750257478 -0.0086645184189116 0)
(1.0010249994019 -0.0099627719748791 0)
(1.0013111165844 -0.011264989089672 0)
(1.0016350530083 -0.012572198613865 0)
(1.0019982508753 -0.013882849114911 0)
(1.0024025832431 -0.015194595007682 0)
(1.0028490387437 -0.016498932022654 0)
(1.0033392973217 -0.017787435589125 0)
(1.0038728866692 -0.019045708472801 0)
(1.0044516365034 -0.020270590185284 0)
(1.0050725566867 -0.021454924874665 0)
(1.0057404219828 -0.02261675949212 0)
(1.0064475170714 -0.023755302793586 0)
(1.0072082244955 -0.024909159356104 0)
(1.0080018238076 -0.026057224544455 0)
(1.0088664541147 -0.027258669286221 0)
(1.0097453242291 -0.028434827589562 0)
(1.0107341812 -0.029704231535773 0)
(1.0116857861975 -0.030874433966005 0)
(1.0128342781323 -0.032232645218127 0)
(1.0138212654576 -0.033331371461475 0)
(1.0151986049785 -0.034867485674433 0)
(1.0161456743966 -0.035775193693091 0)
(1.0179180755173 -0.037713560972957 0)
(0.99999984533105 -0.00071803098832363 0)
(1.0000390246841 -0.0021809427958282 0)
(1.0001139987418 -0.0035999930165558 0)
(1.0002227527114 -0.0049809117931008 0)
(1.0003638359239 -0.0063415628972294 0)
(1.0005368000534 -0.007694495431327 0)
(1.0007420081673 -0.0090471048181193 0)
(1.0009806040281 -0.010404179730675 0)
(1.0012540227049 -0.011767818915147 0)
(1.0015641430361 -0.013139293945951 0)
(1.0019127161997 -0.014517126702913 0)
(1.0023018312273 -0.015898793404894 0)
(1.0027328536653 -0.017275385066611 0)
(1.0032076770413 -0.018637739744132 0)
(1.0037262540298 -0.019970753628865 0)
(1.004290653772 -0.021270603955041 0)
(1.0048982842247 -0.022530130051186 0)
(1.0055543709224 -0.023767701923152 0)
(1.0062513124795 -0.024983463941835 0)
(1.007004691721 -0.026217050179748 0)
(1.0077928144965 -0.027447813128717 0)
(1.0086570931071 -0.028736276229239 0)
(1.0095366021083 -0.030001564511509 0)
(1.0105355621505 -0.031366183203582 0)
(1.0114947015196 -0.032628846943734 0)
(1.0126686938602 -0.034091276631881 0)
(1.0136696777559 -0.035279205534459 0)
(1.0150943326427 -0.036933374096878 0)
(1.0160635248907 -0.037919976435806 0)
(1.0179210684923 -0.040002695174265 0)
(0.99999974360001 -0.00074613280527132 0)
(1.0000370206573 -0.0022690103579849 0)
(1.0001082762798 -0.0037429496399714 0)
(1.0002112038682 -0.0051744385305707 0)
(1.0003442004833 -0.006583914337957 0)
(1.0005068016043 -0.0079858998056681 0)
(1.0006994859862 -0.0093890576492241 0)
(1.0009235366181 -0.010798972255533 0)
(1.0011806120854 -0.012218250973049 0)
(1.0014727730105 -0.013648430123056 0)
(1.0018020691167 -0.015088149989924 0)
(1.0021707844115 -0.016534726883502 0)
(1.0025806594421 -0.017978926319787 0)
(1.0030337900143 -0.019410871945792 0)
(1.0035305679551 -0.020814881934253 0)
(1.0040733095241 -0.022186454834165 0)
(1.0046598496642 -0.023518591543621 0)
(1.0052958920836 -0.024829859339379 0)
(1.0059739869318 -0.026121583681504 0)
(1.0067109552065 -0.027434142245274 0)
(1.0074842009769 -0.028747806450778 0)
(1.0083384208216 -0.030123908388495 0)
(1.0092087768705 -0.031480267208129 0)
(1.0102077866886 -0.03294228644613 0)
(1.0111648799189 -0.034301535645437 0)
(1.0123542658076 -0.035872053038851 0)
(1.0133610525088 -0.037156136713538 0)
(1.0148229923266 -0.038932911699036 0)
(1.0158085360161 -0.040009104399917 0)
(1.0177426340503 -0.042242341913472 0)
(0.99999963980978 -0.00077103900333665 0)
(1.0000345750047 -0.0023475159765498 0)
(1.0001012657247 -0.0038699406874613 0)
(1.0001971132149 -0.0053455662883832 0)
(1.0003203608569 -0.0067974401413308 0)
(1.0004705220812 -0.0082420959767276 0)
(1.000648181475 -0.0096894994745109 0)
(1.0008547441798 -0.011146057475709 0)
(1.0010920750201 -0.012614918954941 0)
(1.0013623933128 -0.014097907204011 0)
(1.0016680235047 -0.015593819254777 0)
(1.0020114186285 -0.017099835894966 0)
(1.0023946710383 -0.018606466618286 0)
(1.0028200666713 -0.020103161918989 0)
(1.0032884239411 -0.021573776044144 0)
(1.0038023232144 -0.023013149656847 0)
(1.0043600200403 -0.024414577103238 0)
(1.0049677382693 -0.025796760160626 0)
(1.0056181708363 -0.027162377522094 0)
(1.0063294178237 -0.028552373093294 0)
(1.0070780222874 -0.029948287550513 0)
(1.0079119314553 -0.031411868914728 0)
(1.0087626708577 -0.032860442134497 0)
(1.0097507125167 -0.034421324877681 0)
(1.0106951464417 -0.035880758969961 0)
(1.0118885243803 -0.037562674729016 0)
(1.012891182966 -0.038949738666968 0)
(1.0143798964428 -0.040854524846708 0)
(1.0153725661658 -0.042028852404741 0)
(1.0173739682371 -0.044419752088917 0)
(0.9999995350575 -0.00079273440057217 0)
(1.0000317259018 -0.0024163768841753 0)
(1.000093081218 -0.0039808684692516 0)
(1.0001807196837 -0.0054942240435991 0)
(1.0002927342022 -0.0069821052049731 0)
(1.0004286057094 -0.008463068710694 0)
(1.000589004262 -0.0099483971845791 0)
(1.0007754341456 -0.011445330874141 0)
(1.000989938326 -0.012957576485688 0)
(1.0012348716653 -0.014487262354252 0)
(1.0015127989731 -0.01603337266247 0)
(1.0018263214197 -0.017592992643738 0)
(1.0021778398059 -0.019156436333089 0)
(1.0025698243448 -0.020712553932085 0)
(1.003003472371 -0.022244819976796 0)
(1.003481661525 -0.023747490294235 0)
(1.0040030098812 -0.025214200421374 0)
(1.0045743313983 -0.02666383119261 0)
(1.0051883824194 -0.028100411228746 0)
(1.0058646095301 -0.029565521929143 0)
(1.0065786760778 -0.031042005073048 0)
(1.007381720491 -0.032592090958966 0)
(1.008201952304 -0.034132941839517 0)
(1.0091672373489 -0.035793372297745 0)
(1.010087624806 -0.037355745412739 0)
(1.0112721788336 -0.039151536336737 0)
(1.0122595959105 -0.040648374016584 0)
(1.013763317178 -0.042686505053613 0)
(1.0147525968185 -0.043967677987486 0)
(1.0168083059995 -0.046524367921625 0)
(0.9999994299872 -0.00081125585766849 0)
(1.0000285083834 -0.0024756653631572 0)
(1.0000838347542 -0.0040758842228801 0)
(1.0001622669297 -0.0056206715798294 0)
(1.0002617502723 -0.0071382832369353 0)
(1.0003817239074 -0.0086492986734863 0)
(1.000522923772 -0.01016632136999 0)
(1.0006869316787 -0.011697425629657 0)
(1.0008759307742 -0.013246876438176 0)
(1.0010923775551 -0.014817105599313 0)
(1.0013390169475 -0.016407288022107 0)
(1.0016185718726 -0.01801444446833 0)
(1.0019336914712 -0.019628738305758 0)
(1.0022870386818 -0.021238522024399 0)
(1.0026801309848 -0.022826964057 0)
(1.0031161983639 -0.024387876016019 0)
(1.0035941405077 -0.025915205210642 0)
(1.0041214263262 -0.027428176408877 0)
(1.004690750034 -0.028931916255586 0)
(1.0053229274053 -0.030469044595141 0)
(1.0059927059586 -0.03202316566945 0)
(1.0067542494074 -0.033657897491192 0)
(1.0075329326586 -0.035289420091576 0)
(1.0084630094646 -0.03704926863976 0)
(1.0093477518745 -0.038715405295126 0)
(1.0105084771277 -0.040626753665146 0)
(1.0114703314023 -0.042238479953553 0)
(1.0129702866674 -0.044414538081265 0)
(1.0139496010433 -0.045807373327046 0)
(1.0160345341812 -0.048537284313248 0)
(0.99999932276107 -0.0008267053651451 0)
(1.0000249763299 -0.0025256378500419 0)
(1.0000736864578 -0.0041554037473549 0)
(1.000142077863 -0.0057254647406092 0)
(1.0002279377817 -0.0072666381334336 0)
(1.0003306456128 -0.0088015202301403 0)
(1.000450988702 -0.010344033898357 0)
(1.0005906134794 -0.011903085758661 0)
(1.0007518182604 -0.01348351444695 0)
(1.0009371394731 -0.015088060423464 0)
(1.0011494363056 -0.016716101370921 0)
(1.0013915019299 -0.018364601130741 0)
(1.0016661566876 -0.020023597855552 0)
(1.0019762237908 -0.021681003004659 0)
(1.0023235141 -0.023319734399249 0)
(1.0027115867871 -0.024933252725715 0)
(1.0031396959574 -0.026515786892597 0)
(1.0036158101333 -0.028087069704563 0)
(1.0041327965931 -0.029653041048732 0)
(1.0047122866023 -0.031257906426306 0)
(1.005328813347 -0.032885119137503 0)
(1.0060382290037 -0.034601311406397 0)
(1.0067650159702 -0.036319329088638 0)
(1.0076466979639 -0.038177336458289 0)
(1.008484913879 -0.039943746787841 0)
(1.0096050689763 -0.04197214493286 0)
(1.0105321602795 -0.043697445062066 0)
(1.012004548689 -0.046011894040337 0)
(1.0129691459533 -0.047523173817168 0)
(1.0150650789888 -0.050428804305874 0)
(0.99999921284016 -0.00083930982275196 0)
(1.0000212623975 -0.0025669562174106 0)
(1.0000629852497 -0.0042204658873442 0)
(1.0001207704931 -0.0058099334301879 0)
(1.0001922006178 -0.0073687198249407 0)
(1.0002765765147 -0.0089214192122895 0)
(1.0003747365959 -0.010483246914759 0)
(1.0004883561287 -0.012063928937675 0)
(1.0006198026971 -0.013668878928375 0)
(1.0007716833877 -0.015301150231929 0)
(1.0009469459247 -0.016960387713207 0)
(1.0011484205198 -0.018643557411841 0)
(1.0013790979199 -0.02034072286078 0)
(1.0016418971656 -0.022039434041176 0)
(1.001939049576 -0.023722511147129 0)
(1.0022741251957 -0.025382979030155 0)
(1.0026471625366 -0.0270153612916 0)
(1.0030656649838 -0.028639598030538 0)
(1.0035240745307 -0.030262474891926 0)
(1.004042392891 -0.03192968979126 0)
(1.0045985971223 -0.033624486589469 0)
(1.0052445140707 -0.035417385828655 0)
(1.0059121239042 -0.037216028125061 0)
(1.0067295927495 -0.039170099679783 0)
(1.0075153344551 -0.041028743299366 0)
(1.0085724427075 -0.043179688683137 0)
(1.0094643634943 -0.045002870600864 0)
(1.0108759840958 -0.047478835870174 0)
(1.0118366036374 -0.04907371852363 0)
(1.0138942994105 -0.052208651798824 0)
(0.99999907750002 -0.00084955112231038 0)
(1.0000175037076 -0.0026011679681037 0)
(1.0000521800599 -0.0042736578463257 0)
(1.0000991099192 -0.0058777816683971 0)
(1.0001555820893 -0.0074494348202547 0)
(1.000220843096 -0.0090151963340581 0)
(1.0002958038616 -0.010591519968507 0)
(1.0003821268933 -0.012188940913224 0)
(1.000482149428 -0.013813575997608 0)
(1.0005986395535 -0.015468562704114 0)
(1.0007345492581 -0.017153773233623 0)
(1.0008926438226 -0.018866155446738 0)
(1.0010760729218 -0.020596055728373 0)
(1.0012878065282 -0.022330860499463 0)
(1.0015308624206 -0.024053748006823 0)
(1.0018085021864 -0.025757360899013 0)
(1.0021223764742 -0.027437166207538 0)
(1.0024778568469 -0.029112681102652 0)
(1.0028732327084 -0.03079268634343 0)
(1.0033221800232 -0.032522358487539 0)
(1.0038130753978 -0.034288075209161 0)
(1.0043817970814 -0.036159825038518 0)
(1.0049866910132 -0.038047207095192 0)
(1.0057167533382 -0.040103904286141 0)
(1.0064527695569 -0.042068892774979 0)
(1.007405675733 -0.044360360029737 0)
(1.0082831890319 -0.046297686816868 0)
(1.0095583895684 -0.048987237137333 0)
(1.0106057496231 -0.050672402079239 0)
(1.0125106500337 -0.054321685328311 0)
(0.99999884650257 -0.0008589487807221 0)
(1.0000129561922 -0.0026330046252611 0)
(1.0000403899402 -0.0043237180878929 0)
(1.0000762590651 -0.0059426053641341 0)
(1.0001175167884 -0.0075280655606015 0)
(1.000163510281 -0.0091085990108692 0)
(1.0002152348093 -0.010701852655341 0)
(1.0002744000254 -0.012318987259964 0)
(1.0003434372008 -0.013966860243335 0)
(1.0004247308383 -0.015649120574915 0)
(1.0005211697852 -0.017365752434098 0)
(1.0006352446048 -0.019113469466429 0)
(1.0007698645728 -0.020882724270638 0)
(1.0009276369907 -0.022660573548557 0)
(1.0011123097123 -0.02443077293603 0)
(1.0013271012518 -0.026185551164113 0)
(1.001576054865 -0.027922407311685 0)
(1.0018624273569 -0.029660376698406 0)
(1.0021899330987 -0.031413258070361 0)