/*--------------------------------*- C++ -*----------------------------------*\
| =========                 |                                                 |
| \\      /  F ield         | OpenFOAM: The Open Source CFD Toolbox           |
|  \\    /   O peration     | Version:  2112                                  |
|   \\  /    A nd           | Website:  www.openfoam.com                      |
|    \\/     M anipulation  |                                                 |
\*---------------------------------------------------------------------------*/
FoamFile
{
    version     2.0;
    format      ascii;
    arch        "LSB;label=32;scalar=64";
    class       surfaceScalarField;
    location    "18.1";
    object      phi;
}
// * * * * * * * * * * * * * * * * * * * * * * * * * * * * * * * * * * * * * //

dimensions      [0 3 -1 0 0 0 0];

oriented        oriented;

internalField   nonuniform List<scalar> 
43645
(
0.39512387914591
-5.0061148850856e-06
0.39513889710034
-1.5017993937483e-05
0.39516386534789
-2.4968290285181e-05
0.3951987736073
-3.490830353107e-05
0.39524361828601
-4.4844722965613e-05
0.39529838905488
-5.4770812605381e-05
0.3953630638943
-6.4674882234129e-05
0.39543761033647
-7.4546483893949e-05
0.39552198434851
-8.4374052575234e-05
0.39561613595152
-9.4151642343295e-05
0.39572000874184
-0.00010387282839727
0.39583354943142
-0.00011354072645964
0.39595669570891
-0.00012314631314479
0.39608938699647
-0.00013269132208184
0.39623153390225
-0.00014214693918183
0.39638305116036
-0.00015151729052036
0.39654380028462
-0.00016074915571384
0.39671367616442
-0.00016987591045492
0.3968924793342
-0.00017880319971634
0.39708011423129
-0.00018763492644499
0.39727629166474
-0.00019617746235021
0.39748098159344
-0.00020468995728662
0.39769372744612
-0.00021274588106164
0.39791468569484
-0.00022095827706763
0.39814305198151
-0.00022836631507705
0.39837944453613
-0.00023639258323972
0.39862229811646
-0.00024285360923933
0.39887331652353
-0.00025101843602987
0.39912922705489
-0.00025591056019599
-0.00026495895038184
0.39939418597558
0.37294721441511
-9.6658505873586e-06
0.37296126269286
-2.9066338393418e-05
0.37298481769306
-4.8523358400449e-05
0.37301785981011
-6.7950488365341e-05
0.373060380744
-8.736572370564e-05
0.37311237320014
-0.00010676333429126
0.37317382135914
-0.00012612310527616
0.37324469873639
-0.000145423923619
0.37332496613602
-0.00016464151304344
0.37341457803663
-0.00018376360217193
0.37351348368395
-0.00020277853326985
0.37362163750358
-0.00022169460205366
0.37373898743927
-0.00024049630320413
0.37386548485745
-0.00025918879312901
0.37400105398121
-0.00027771611437147
0.3741456233337
-0.00029608669315056
0.37429906966514
-0.0003141955360793
0.37446130215669
-0.00033210844992539
0.37463213839891
-0.00034963948894913
0.37481149702826
-0.00036699360212181
0.37499910900326
-0.00038378948310321
0.37519495673458
-0.00040053773402673
0.37539860959513
-0.0004163987868012
0.37561023095582
-0.00043257968293892
0.37582905559969
-0.00044719100424226
0.37605569535483
-0.00046303238397449
0.37628865678568
-0.00047581508608283
0.37652960661786
-0.00049196831410954
0.37677542324049
-0.00050172722775017
-0.00051971594858045
0.37703018019202
0.35201545219189
-1.4220581502869e-05
0.35202914689028
-4.2761104786165e-05
0.35205197805869
-7.1354595033261e-05
0.35208393660156
-9.9909098601637e-05
0.35212502212277
-0.00012845131082128
0.35217523083565
-0.00015697211137484
0.35223454917721
-0.000185441509192
0.35230295292091
-0.00021382772781704
0.35238040514447
-0.00024209379515913
0.35246686358021
-0.00027022209459049
0.35256228292435
-0.00029819793214822
0.35266662689121
-0.00032603862183021
0.3527798561286
-0.00035372559169689
0.35290193834832
-0.00038127106230656
0.35303281522485
-0.00040859303876309
0.35317243509015
-0.00043570660495264
0.35332069309654
-0.0004624535877261
0.3534775202027
-0.00048893560033031
0.35364275177676
-0.00051487110641096
0.35381633139348
-0.00054057326167254
0.35399800524973
-0.00056546338175779
0.35418778635386
-0.0005903188804111
0.35438525179253
-0.00061386426774031
0.35459060658371
-0.00063793451665382
0.3548030745952
-0.0006596590586788
0.35502333261061
-0.00068329044298779
0.35524983176624
-0.0007023142860433
0.35548435280304
-0.00072648939555545
0.35572361341648
-0.00074098788507756
-0.0007679887595206
0.35597188618132
0.3322584784834
-1.8655162861095e-05
0.33227181847036
-5.6101153349556e-05
0.3322940234811
-9.3559667580624e-05
0.33232507201732
-0.00013095769591116
0.33236496248081
-0.00016834183412573
0.33241369472228
-0.00020570441122189
0.33247125934895
-0.00024300619264285
0.3325376351096
-0.00028020354364004
0.33261278685037
-0.00031724558941804
0.33269667505009
-0.000354110346151
0.33278926023176
-0.00039078316396176
0.33289051736303
-0.00042729580163445
0.33300042293929
-0.00046363121488722
0.33311896541249
-0.00049981358097864
0.33324610833847
-0.00053573600880391
0.33338182508117
-0.00057142339048889
0.33352603338745
-0.0006066619357312
0.33367869159918
-0.00064159385288953
0.33383965618247
-0.00067583572974936
0.33400890226661
-0.00070981938534375
0.3341861928463
-0.00074275400055733
0.33437158042946
-0.00077570650252345
0.33456464740384
-0.00080693128103586
0.33476565466186
-0.0008389418137742
0.33497380490866
-0.00086780934486829
0.33518986836669
-0.00089935394091142
0.33541221752218
-0.00092466348198669
0.33564281475434
-0.0009570866682894
0.33587817474596
-0.00097634791640546
-0.0010127710218508
0.33612295696655
0.31361037721458
-2.2975048497216e-05
0.31362338123507
-6.9105227808546e-05
0.31364500024197
-0.00011517872832976
0.31367520478727
-0.0001611622941827
0.31371399236315
-0.00020712946164997
0.3137613662152
-0.00025307831345175
0.31381732167668
-0.00029896170269363
0.31388184141568
-0.00034472332960539
0.31395489282834
-0.00039029704737151
0.31403643997465
-0.0004356575361493
0.3141264506307
-0.00048079386203924
0.31422491365142
-0.00052575886284085
0.31433182512946
-0.00057054273189513
0.31444719907932
-0.00061518756844926
0.31457102602235
-0.00065956298815309
0.31470330994323
-0.00070370734662287
0.31484399625586
-0.0007473482826345
0.31499307654135
-0.00079067417192376
0.31515043308941
-0.0008331923107472
0.31531607919366
-0.00087546552218475
0.3154897986868
-0.00091647352606944
0.31567169179732
-0.00095759964544916
0.31586134852326
-0.00099658803951828
0.31605909737702
-0.0010366907004513
0.31626411810542
-0.0010728301066777
0.31647729351135
-0.0011125293809167
0.31669690481177
-0.0011442748172376
0.316925128373
-0.0011853102646925
0.3171582321115
-0.0012094516895241
-0.0012558567775011
0.31740131783034
0.29600890263521
-2.717586982604e-05
0.29602155903206
-8.1761673252782e-05
0.29604257054636
-0.00013619029104644
0.29607190173727
-0.00019049353273627
0.29610955111152
-0.00024477888239041
0.29615552674414
-0.00029905399133571
0.29620982991049
-0.00035326491295224
0.29627244842875
-0.00040734189044739
0.29634335356286
-0.00046120222265787
0.29642251455636
-0.00051481856946714
0.29650990862279
-0.00056818796686562
0.29660554155208
-0.00062139182922965
0.29670943293133
-0.00067443414692061
0.2968216269659
-0.0007273816376311
0.29694214615754
-0.0007800822132621
0.29707103044944
-0.00083259167104255
0.29720825828308
-0.0008845761479176
0.2973538601576
-0.00093627607741844
0.29750774974301
-0.00098708192653713
0.29766998464495
-0.0010377004541363
0.29784037518706
-0.0010868640979151
0.29801907607152
-0.0011363005595488
0.29820569011292
-0.0011832021105743
0.29840062088188
-0.0012316214992412
0.29860302857422
-0.0012752378291066
0.29881391726467
-0.0013234181018572
0.29903147571621
-0.0013618332997178
0.29925810658443
-0.0014119411639113
0.29948982032504
-0.0014411654604284
-0.0014982171596251
0.29973218067498
0.27939530022157
-3.1241610107644e-05
0.27940756139949
-9.4022891815265e-05
0.2794278871305
-0.00015651606239874
0.27945623712653
-0.0002188435683505
0.27949261227503
-0.00028115406941547
0.27953702698424
-0.00034346873797342
0.27958948997661
-0.0004057279415329
0.27964999565962
-0.0004678476084886
0.2797185206338
-0.00052972723060581
0.27979504103558
-0.00059133900382969
0.27987954577904
-0.00065269274166569
0.2799720605382
-0.00071390661860249
0.28007263211944
-0.00077500575722318
0.28018133917618
-0.00083608872244035
0.28029824099801
-0.00089698406219424
0.28042341844735
-0.0009577691467031
0.28055688846059
-0.0010180461867371
0.28069872580645
-0.0010781134483292
0.28084888168781
-0.0011372378324939
0.28100746362227
-0.0011962824129319
0.28117431542714
-0.00125371592694
0.28134965170832
-0.0013116368648963
0.28153309614531
-0.0013666465718012
0.28172513186256
-0.0014236572409758
0.28192490921589
-0.0014750152072321
0.28213355583361
-0.0015320647448131
0.28234918083519
-0.0015774583270166
0.28257441156111
-0.0016371719156872
0.2828050197011
-0.0016717736257901
-0.0017402221088931
0.28304702462318
0.26371411561671
-3.5147810212147e-05
0.26372590627824
-0.00010581358834177
0.26374542617777
-0.00017603599665234
0.26377263059255
-0.00024604801725503
0.26380752357245
-0.00031604708261561
0.26385012699403
-0.00038607219203868
0.26390045834215
-0.0004560593212015
0.26395851994889
-0.00052590924590843
0.26402429519083
-0.00059550250225221
0.26409776876027
-0.00066481260207116
0.2641789434305
-0.00073386743972981
0.26426786740605
-0.00080283062110803
0.26436461805572
-0.00087175643292491
0.26446931216127
-0.0009407828532308
0.26458205019347
-0.0010097221188338
0.26470295831066
-0.0010786772876771
0.26483209729686
-0.0011471851960754
0.26496959101243
-0.0012156071865603
0.26511543474206
-0.0012830815843296
0.26526979085687
-0.0013506385496474
0.2654325449158
-0.0014164700075107
0.26560397569993
-0.0014830676705554
0.26578373869503
-0.0015464095883398
0.2659723984472
-0.0016123170146166
0.26616911115959
-0.0016717279411557
0.26637512420404
-0.0017380778109548
0.26658849185553
-0.0017908260003725
0.26681204988687
-0.0018607299687585
0.26704137344118
-0.0019010972012238
-0.0019817455243237
0.26728289683408
0.24891301021494
-3.8865362139452e-05
0.24892423790664
-0.00011704130826153
0.24894280636308
-0.00019460448104801
0.24896866593024
-0.00027190761189856
0.24900182427718
-0.00034920545637529
0.24904231152845
-0.00042655946949799
0.24909015482299
-0.00050390264121976
0.24914536540162
-0.00058111984935158
0.24920793460708
-0.00065807173179076
0.24927785708089
-0.00073473509927695
0.24935515132323
-0.00081116170472562
0.2494398902386
-0.0008875695584903
0.24953218452234
-0.00096405073796667
0.24963219196245
-0.0010407903140501
0.24974005793656
-0.0011175881130458
0.24985595742117
-0.0011945767918938
0.24998000001103
-0.0012712278050555
0.25011236268041
-0.0013479698746884
0.25025309146646
-0.0014238103888008
0.25040240761468
-0.0014999547160527
0.25056024764814
-0.0015743100589771
0.25072695732445
-0.0016497773647814
0.25090223737738
-0.0017216896591365
0.251086732782
-0.0017968124371218
0.25127962676911
-0.001864621946216
0.25148227609685
-0.0019407271567678
0.25169271619128
-0.0020012661129984
0.25191396045884
-0.0020819742543791
0.2521414528501
-0.002128589610026
-0.0022222631650392
0.25238197047202
0.23494258477247
-4.2362596874747e-05
0.23495315274975
-0.00012760930881119
0.23497061408144
-0.00021206583582076
0.23499491464179
-0.0002962081950059
0.23502606606028
-0.00038035689718512
0.23506410708025
-0.00046460051138658
0.23510907509487
-0.00054887067730701
0.23516099097416
-0.0006330357497111
0.23521985495581
-0.0007169357340266
0.23528567269279
-0.00080055285642046
0.23535847979649
-0.00088396882809172
0.23543837523399
-0.0009674650152395
0.23552550490654
-0.0010511804292743
0.23562006940945
-0.0011353548353134
0.23572226179887
-0.0012197805203727
0.23583230824155
-0.0013046232521232
0.23595037137617
-0.0013892909568333
0.23607668418444
-0.0014742826998076
0.23621134987438
-0.0015584760952905
0.23635465135896
-0.0016432562169471
0.23650658590242
-0.0017262446185334
0.23666756736814
-0.0018107588464225
0.23683735725391
-0.0018914795606895
0.23701667691148
-0.0019761321103448
0.2372047626301
-0.0020527076804003
0.23740306407275
-0.0021390286148966
0.23760964431234
-0.002207846368
0.23782765033516
-0.0022999802922963
0.23805248217426
-0.002353421463645
-0.002460940148581
0.23829115914239
0.22175621512889
-4.5607953284276e-05
0.22176602963579
-0.00013742383402925
0.22178223046079
-0.00022826667901202
0.2218047599978
-0.0003187377500115
0.22183363417993
-0.00040923109704669
0.22186890045603
-0.00049986680499962
0.22191060651347
-0.00059057675199659
0.22195878300384
-0.00068121225714128
0.22201343959645
-0.00077159234342675
0.22207459362857
-0.00086170690512521
0.22214229856391
-0.00095167377974515
0.22221667989654
-0.0010418463639489
0.22229791951352
-0.0011324200620553
0.22238626123602
-0.0012236965733919
0.2224819473191
-0.0013154666187465
0.22258525606116
-0.0014079320092503
0.22269640631787
-0.0015004412283633
0.22281568854089
-0.001593564937434
0.22294326887153
-0.0016860564403177
0.22307949314911
-0.0017794805087355
0.2232244292572
-0.0018711807406531
0.22337855834576
-0.0019648879488588
0.22354171968283
-0.0020546409114878
0.22371470397767
-0.0021491164187748
0.22389683088396
-0.0022348346001653
0.22408962064446
-0.0023318183887302
0.2242912200098
-0.002409445746554
0.22450485332839
-0.0025136136237317
0.22472598403901
-0.0025745521865743
-0.002696703122978
0.22496174700035
0.20930989661553
-4.8572632779609e-05
0.20931887147873
-0.00014639871186729
0.2093336704662
-0.00024306568107139
0.20935423341946
-0.0003393007177891
0.20938058067914
-0.00043557837113001
0.20941276807273
-0.00053205421296516
0.20945085317891
-0.00062866187247111
0.20949487603529
-0.00072523512780329
0.20954485550664
-0.0008215718289986
0.20960082032857
-0.00091767174125414
0.20966284182055
-0.0010136952858373
0.20973107160289
-0.0011100761603678
0.20980572712652
-0.001207075599638
0.20988709441329
-0.0013050638740455
0.20997546493744
-0.0014038371566291
0.2100711684053
-0.0015036354907366
0.21017448169993
-0.0016037545364486
0.2102857525143
-0.0017048357651133
0.21040521463855
-0.0018055185776994
0.21053327629637
-0.0019075421795074
0.21067008545872
-0.0020079899157785
0.21081618764717
-0.0021109901498677
0.21097151782107
-0.0022099710977647
0.21113692592287
-0.0023145245327255
0.21131184863272
-0.0024097573219601
0.21149784907853
-0.0025178188462378
0.21169322201834
-0.0026048186978454
0.21190120180483
-0.0027215934212495
0.21211744086174
-0.002790791253958
-0.0029283011962011
0.21234903892396
0.19756209595054
-5.1232064231398e-05
0.19757015748293
-0.00015446025574357
0.19758343391726
-0.00025634212690799
0.19760186318454
-0.00035772999661891
0.19762546974198
-0.00045918494011665
0.19765431700705
-0.00056090148967701
0.1976884715073
-0.000662816384417
0.19772798170711
-0.00076474533944658
0.19777287491223
-0.0008664650460338
0.19782319034484
-0.00096798718590592
0.19787901605981
-0.0010695210129231
0.19794052796074
-0.0011715880735163
0.19800797751785
-0.0012745251690063
0.19808169051773
-0.0013787768862235
0.19816200612658
-0.0014841527777637
0.19824930295104
-0.0015909323274706
0.1983439160801
-0.0016983676777112
0.1984462483389
-0.0018071680360214
0.19855660446296
-0.0019158747137353
0.19867545249731
-0.0020263902256832
0.19880302903301
-0.0021355664631238
0.19893993871756
-0.0022478998458495
0.19908623025235
-0.0023562626437728
0.19924279972826
-0.0024710940195877
0.19940923693259
-0.0025761945370132
0.19958711507934
-0.0026956970033934
0.19977494807741
-0.0027926517060777
0.19997590300519
-0.0029225483587004
0.20018596275257
-0.0030008510104973
-0.0031543582178258
0.2004120197646
0.18647361249466
-5.3567197620519e-05
0.18648070327967
-0.00016155105002591
0.18649236319828
-0.00026800205489051
0.18650852877103
-0.00037389557884877
0.18652922795779
-0.00047988413644697
0.18655453050384
-0.00058620404548309
0.18658451042223
-0.00069279631270927
0.18661922309768
-0.00079945802503262
0.18665870292523
-0.00090594488390473
0.18670299800826
-0.001012282279502
0.18675221125834
-0.0011187342737475
0.18680653997406
-0.001225916800189
0.1868662663998
-0.00133425160585
0.18693175204279
-0.001444262540479
0.18700338085558
-0.0015557816018867
0.18708157608709
-0.0016691275703815
0.18716672947101
-0.0017835210730186
0.1872592948558
-0.0018997334321455
0.18735964948853
-0.0020162293576919
0.18746831652728
-0.002135057275496
0.18758562824767
-0.0022528781943741
0.1877122407663
-0.0023745123750705
0.18784833391524
-0.0024923558030372
0.18799483377076
-0.0026175938850856
0.18815152050756
-0.0027328812834939
0.18831994020754
-0.0028641167126666
0.18849890221227
-0.0029716137197938
0.18869142027313
-0.0031150664280341
0.18889396265109
-0.0032033933964571
-0.0033734187996696
0.18911302322457
0.17600744679883
-5.5565243628626e-05
0.17601352811573
-0.00016763237465158
0.17602350840757
-0.00027798235458656
0.17603732301062
-0.0003877101899166
0.17605500245128
-0.00049756358525709
0.17607662120386
-0.00060782280643344
0.17610225889361
-0.00071843401100772
0.17613197586164
-0.00082917500187913
0.1761658117184
-0.00093978074970567
0.17620382122665
-0.0010502917970897
0.17624611947935
-0.001161032536027
0.17629292132699
-0.0012727186576909
0.17634453548061
-0.0013858657695607
0.17640135356673
-0.0015010806369254
0.17646379950443
-0.0016182275500703
0.17653233548697
-0.0017376635635247
0.17660740656978
-0.0018585921664788
0.17668951161772
-0.0019818384907032
0.17677909994112
-0.0021058176916224
0.17687674296659
-0.0022327003112988
0.17698287379612
-0.0023590090340083
0.17709818994867
-0.0024898285373864
0.17722301822054
-0.0026171840843263
0.17735829559636
-0.0027528712698863
0.17750402973709
-0.0028786154328288
0.17766169817796
-0.00302178516167
0.17783048545658
-0.0031404010061903
0.17801315865131
-0.0032977396300256
0.17820683649432
-0.0033970712463146
-0.003583989849832
0.1784174075373
0.16612867679824
-5.7220068129628e-05
0.16613372966373
-0.00017268524694584
0.16614199969427
-0.00028625239207211
0.16615342118335
-0.00039913168609673
0.16616802609809
-0.00051216850720182
0.16618589174757
-0.00062568846329444
0.16620710116459
-0.00073964343555012
0.16623171734507
-0.00085379119009605
0.16625978282863
-0.00096784624120007
0.16629135634154
-0.001081865318196
0.16632656181232
-0.0011962380152468
0.16636562702048
-0.0013117838746059
0.16640888177944
-0.0014291205375316
0.16645674123491
-0.0015489401016962
0.16650966303998
-0.0016711493646418
0.16656814082588
-0.0017961413591024
0.16663266792005
-0.0019231192704058
0.16670378064745
-0.0020529512278469
0.1667819976883
-0.0021840347421004
0.16686792994393
-0.0023186325763289
0.16696211397526
-0.0024531930744345
0.16706527661138
-0.0025929911821458
0.1671779051642
-0.0027298126453344
0.16730092582892
-0.0028758919422088
0.16743460911078
-0.0030122987217758
0.16758031836437
-0.0031674944217498
0.16773769473238
-0.0032977773802479
0.1679091589056
-0.003469203808761
0.16809265453568
-0.003580566881599
-0.0037845755559421
0.16829324023627
0.15680434069526
-5.8532079189611e-05
0.15680836572469
-0.0001767102827152
0.15681492724254
-0.00029281391632374
0.15682395840739
-0.00040816285738275
0.15683549134004
-0.00052370144627093
0.15684960419212
-0.00063980132180312
0.15686638103956
-0.00075642028940678
0.15688588508104
-0.00087329523804481
0.1569081592633
-0.00099012042996038
0.15693326330722
-0.0011069693687798
0.15696132609607
-0.0012243008109195
0.15699258316532
-0.0013430409509349
0.15702737914716
-0.001463916526705
0.15706614537395
-0.0015877063361131
0.15710936572612
-0.0017143697246818
0.15715755704224
-0.001844332683297
0.15721125362516
-0.0019768158615023
0.15727102069689
-0.0021127183077422
0.15733744108288
-0.0022504551361229
0.15741115523647
-0.0023923467376492
0.15749280215671
-0.0025348400019998
0.15758312467644
-0.0026833137086104
0.15768278035204
-0.0028294683270422
0.15779266196635
-0.0029857735618284
0.15791333577464
-0.0031329725346798
0.15804599994304
-0.0033001585939602
0.15819083513366
-0.0034426125741078
0.1583497999236
-0.0036281686013765
0.15852186091599
-0.0037526278764947
-0.0039737219940252
0.15871100735128
0.14800332680866
-5.9507963635243e-05
0.14800634312799
-0.00017972660841529
0.14801122820126
-0.00029769899585321
0.14801791406842
-0.00041484873055422
0.14802643177657
-0.00053221916008832
0.14803685818521
-0.00065022773580607
0.14804927591528
-0.0007688380244769
0.14806374589575
-0.00088776522324793
0.14808030891383
-0.001006683452522
0.14809902274223
-0.0011256832015788
0.1481200170763
-0.0012452951493671
0.14814352983618
-0.0013665537153278
0.14816991343177
-0.0014903001270049
0.14819960774033
-0.001617400649647
0.14823311403009
-0.0017478760196642
0.14827096400026
-0.0018821826589106
0.14831372354338
-0.0020195754101768
0.1483619783494
-0.0021609731193012
0.14841636626419
-0.0023048430562776
0.14847754882884
-0.0024535293072924
0.14854626036335
-0.0026035515409549
0.14862324842423
-0.0027603017731691
0.14870934163315
-0.0029155615387756
0.14880537949541
-0.0030818114258377
0.14891225159038
-0.0032398446304049
0.14903093951144
-0.0034188465146943
0.14916225217204
-0.0035739252336097
0.14930753416916
-0.0037734505967675
0.14946700085552
-0.0039120945611408
-0.0041499701295634
0.14964324899255
0.13969626922984
-6.0159940064188e-05
0.13969831273646
-0.00018177012252925
0.13970158078315
-0.00030096704974433
0.13970600437457
-0.00041927232844486
0.13971161220019
-0.00053782699128429
0.13971847784096
-0.00065709338124896
0.13972668023154
-0.00077704041881835
0.13973627566073
-0.00089736065542295
0.13974730015459
-0.0010177079486847
0.13975980664951
-0.0011381896983446
0.13977392148473
-0.0012594099861571
0.13978987972611
-0.0013825119582235
0.13980803415569
-0.0015084545581723
0.13982882573499
-0.0016381922307526
0.1398527631548
-0.001771813441505
0.13988038528172
-0.0019098047880953
0.1399122774589
-0.0020514675897304
0.13994903957717
-0.0021977352399265
0.13999134930098
-0.0023471527822118
0.1400398862199
-0.0025020662278609
0.14009546163358
-0.0026591269555865
0.14015882895222
-0.0028236690917563
0.14023096632471
-0.0029876989100663
0.14031265962267
-0.0031635047211708
0.14040511255965
-0.0033322975633792
0.14050907211079
-0.0035228060603742
0.14062605729827
-0.0036909104145279
0.14075662054599
-0.0039040138372026
0.140902602635
-0.004058076643091
-0.0043117754456165
0.14106440795797
0.131855449185
-6.0504404421267e-05
0.13185656951345
-0.00018289046238462
0.13185830345304
-0.00030270100053194
0.13186058051793
-0.0004215494032545
0.13186342538415
-0.00054067186574507
0.13186690655103
-0.00066057455464629
0.13187109766417
-0.00078123153680411
0.13187604846092
-0.00090231145557608
0.1318817879622
-0.0010234474521435
0.13188836140946
-0.001144763146905
0.13189588769192
-0.0012669362693045
0.1319045937121
-0.00139121797883
0.13191482538957
-0.0015186862360087
0.13192701744092
-0.0016503842825953
0.13194167588928
-0.0017864718905629
0.13195933977059
-0.0019274686703069
0.131980599877
-0.0020727276971434
0.13200606655335
-0.0022232019172111
0.13203643494067
-0.0023775211701759
0.13207240875637
-0.0025380400435886
0.13211483819492
-0.0027015563932695
0.13216451319141
-0.0028733440860947
0.13222249359058
-0.0030456793055746
0.1322895833673
-0.0032305944923693
0.13236716773489
-0.0034098819235648
0.13245588752863
-0.0036115258447531
0.13255779619214
-0.0037928190671557
0.13267290207259
-0.0040191197058522
0.13280454702677
-0.0041897215859118
-0.0044580798927715
0.13295085148503
0.12445470188496
-6.0559965623254e-05
0.1244549577538
-0.00018314635208174
0.12445525833417
-0.00030300160238536
0.12445553082779
-0.00042182191680507
0.12445579326702
-0.00054093432248207
0.12445610744282
-0.00066088874536002
0.12445654005713
-0.00078166416353873
0.12445713270138
-0.00090290411011279
0.12445790693257
-0.0010242216918576
0.12445889835954
-0.0011457545810922
0.12446021450848
-0.0012682524245802
0.12446206764478
-0.0013930711209728
0.12446479013202
-0.0015214087288987
0.1244688022968
-0.0016543964530579
0.12447459962286
-0.0017922692224276
0.12448271291119
-0.0019355819645799
0.12449372714987
-0.0020837419418062
0.12450825720081
-0.0022377319739658
0.12452699340854
-0.0023962573832797
0.12455067106427
-0.0025617177038818
0.1245801268749
-0.0027310122072685
0.12461624299704
-0.0029094602099491
0.12466003545204
-0.0030894717603013
0.12471251870806
-0.00328307774574
0.12477494552745
-0.0034723087378147
0.1248482911513
-0.0036848714608776
0.12493436317004
-0.0038788910760919
0.125033567082
-0.0041183236068174
0.12514975681353
-0.0043059113069803
-0.004588667328768
0.12528034425904
0.11746933098315
-6.0347198554977e-05
0.11746878545951
-0.00018260086686168
0.11746776629885
-0.0003019824819306
0.11746619491869
-0.00042025057540914
0.1174640792564
-0.00053881869606591
0.11746147518008
-0.00065828470169211
0.11745844045131
-0.0007786294643076
0.11745500410322
-0.00089946778891245
0.11745118124421
-0.0010203988575901
0.11744699859874
-0.0011415719587812
0.11744255039034
-0.0012638042382541
0.11743802713958
-0.0013885478916423
0.1174337414653
-0.0015171230757233
0.11743008915592
-0.0016507441646855
0.11742755136525
-0.0017897314527648
0.11742663764087
-0.0019346682612066
0.1174279259602
-0.0020850302820264
0.11743201694106
-0.0022418229753375
0.11743959487395
-0.0024038353359934
0.11745140563583
-0.0025735284844031
0.1174682543435
-0.0027478609319677
0.11749112504344
-0.0029323309246943
0.11752088474441
-0.0031192314735143
0.11755895155731
-0.0033211445678402
0.11760604748502
-0.0035194046715714
0.11766436712086
-0.003743191099428
0.11773389435875
-0.0039484183139489
0.11781776424396
-0.0042021934903394
0.11791562653035
-0.0044037735921951
-0.0047054681305523
0.11803242733056
0.11087603342079
-5.9895770119341e-05
0.11087476137775
-0.00018132888666477
0.11087254712579
-0.0002997682955267
0.11086930354477
-0.00041700705853301
0.11086502812476
-0.00053454333705109
0.11085976957597
-0.00065302621031484
0.11085357979519
-0.00077243973758365
0.11084647285069
-0.00089236089562225
0.11083845828573
-0.0010123843416125
0.11082955142025
-0.0011326651406629
0.11081982999085
-0.0012540828550823
0.11080945750784
-0.0013781754541747
0.11079872275857
-0.0015063883715664
0.11078798878455
-0.0016400102355555
0.11077772236898
-0.001779465081892
0.11076839619032
-0.0019253421270659
0.11076059044451
-0.0020772245803272
0.11075485563021
-0.0022360882044781
0.11075190389282
-0.0024008836408868
0.11075241291021
-0.0025740375423912
0.1107572446982
-0.0027526927581682
0.11076732839238
-0.002942414654155
0.11078353139198
-0.0031354345049383
0.11080744891564
-0.0033450621195904
0.11083931406776
-0.0035512698477452
0.11088289171813
-0.003786768769733
0.11093547407356
-0.0040010006856409
0.11100661200993
-0.0042733314408158
0.11108207214244
-0.0044792337391946
-0.0048113732589363
0.11118797725084
0.10465281262046
-5.9242496077529e-05
0.10465092286281
-0.00017943921795841
0.10464765448663
-0.00029650000997187
0.10464291534667
-0.00041226800741337
0.10463671845912
-0.00052834653511908
0.10462908712741
-0.00064539496074428
0.10462004468316
-0.00076339737228179
0.10460961841114
-0.0008819346999485
0.10459782951274
-0.0010005955175914
0.10458467745891
-0.0011195131598078
0.1045702118521
-0.0012396173202978
0.10455455856577
-0.0013625222392106
0.10453797303843
-0.0014898029151486
0.10452078178007
-0.0016228190477561
0.10450343826152
-0.0017621216335571
0.1044863732054
-0.0019082771406591
0.10447017861534
-0.0020610300592813
0.10445532276607
-0.0022212324230163
0.10444258688269
-0.0023881478235812
0.10443246903156
-0.0025639197546717
0.10442606943476
-0.0027462932214592
0.10442390575894
-0.0029402510341968
0.10442746047291
-0.0031389892703245
0.10443739084791
-0.0033549925411736
0.10445515333785
-0.0035690323793559
0.1044828554774
-0.0038144709457083
0.1045194726422
-0.0040376178823571
0.1045765632791
-0.0043304221068495
0.10463582677487
-0.0045384972646479
-0.004906593957648
0.10473104743439
0.098778855266803
-5.8379588286417e-05
0.098776472503687
-0.00017705656071649
0.09877228389528
-0.00029231150795385
0.098766218240302
-0.00040620245683786
0.09875832802501
-0.00052045642135649
0.09874868324515
-0.00063575027950441
0.098737109053527
-0.00075182327679773
0.098723723950952
-0.00086854969166865
0.098708564284133
-0.00098543594380705
0.098691627410857
-0.0011025763788042
0.098672943156286
-0.001220933157525
0.098652598044465
-0.001342177218932
0.098630797315699
-0.0014680022776798
0.098607818786298
-0.0015998406094521
0.09858408653069
-0.0017383894686532
0.098559995327908
-0.0018841860280557
0.098536135816175
-0.0020371706366903
0.098512904931362
-0.0021980016257541
0.098491132147607
-0.002366375124704
0.098471121867867
-0.0025439095560828
0.098454249341586
-0.0027294207713041
0.098440434090266
-0.0029264358532667
0.098432225890327
-0.0031307811345315
0.098428281359376
-0.0033510480681282
0.098433719636452
-0.0035744707079134
0.098443763812207
-0.0038245151663754
0.098468232321253
-0.004062086430594
0.098496435289241
-0.0043586251113768
0.098543418933895
-0.004585480948627
0.09866154791288
-0.0050247229877001
0.39475556418717
0.0046386217582048
0.39027648409231
0.0044790800650369
0.38596146339139
0.0043150206709528
0.38181490707194
0.0041465562890437
0.37784107948798
0.003973827552952
0.37404410488462
0.0037969745716605
0.37042795917436
0.0036161456778608
0.36699646072607
0.0034314984151939
0.36375326341738
0.0032431972749574
0.36070185207489
0.0030514113081398
0.35784553924586
0.002856312794173
0.3551874621605
0.002658077050033
0.35273057917111
0.0024568829537065
0.35047766540283
0.0022529137323158
0.3484313080134
0.0020463573532967
0.34659390131709
0.0018374066600789
0.34496764199285
0.0016262592880349
0.34355452451971
0.0014131174370274
0.34235633681759
0.0011981876662163
0.34137465625095
0.00098168053099357
0.34061084510121
0.00076381111445728
0.34006604497006
0.0005448000962417
0.33974116332116
0.00032488161444507
0.33963680593701
0.00010435735012653
0.33975362913226
-0.00011682322877918
0.34009193608471
-0.00033830698553353
0.34065167363141
-0.00055973757928974
0.34143263987684
-0.00078096627760026
0.34243440988664
-0.0010017700415235
0.34365632652662
-0.0012219166713234
0.34509749918186
-0.0014411726861499