/*--------------------------------*- C++ -*----------------------------------*\
| =========                 |                                                 |
| \\      /  F ield         | OpenFOAM: The Open Source CFD Toolbox           |
|  \\    /   O peration     | Version:  2112                                  |
|   \\  /    A nd           | Website:  www.openfoam.com                      |
|    \\/     M anipulation  |                                                 |
\*---------------------------------------------------------------------------*/
FoamFile
{
    version     2.0;
    format      ascii;
    arch        "LSB;label=32;scalar=64";
    class       volVectorField;
    location    "18.1";
    object      U;
}
// * * * * * * * * * * * * * * * * * * * * * * * * * * * * * * * * * * * * * //

dimensions      [0 1 -1 0 0 0 0];

internalField   nonuniform List<vector> 
22000
(
(1.0000010172311 -2.6060380599025e-05 0)
(1.0000270424339 -7.8245580018198e-05 0)
(1.0000769877944 -0.00013021885333856 0)
(1.0001519593731 -0.00018206326068607 0)
(1.0002524338506 -0.00023384011952343 0)
(1.0003784052112 -0.00028553872209088 0)
(1.0005296511784 -0.00033710942159715 0)
(1.0007059425691 -0.00038850172961028 0)
(1.0009071129385 -0.00043965664559603 0)
(1.0011330503559 -0.00049054338299201 0)
(1.0013836380753 -0.00054112677357171 0)
(1.0016587629314 -0.00059142049081658 0)
(1.0019582778834 -0.00064137400659588 0)
(1.0022820484502 -0.00069099509736093 0)
(1.0026298624335 -0.00074013190609412 0)
(1.0030015305488 -0.00078880848821161 0)
(1.0033967198333 -0.00083674554798404 0)
(1.0038151895443 -0.00088412281240509 0)
(1.0042564555882 -0.00093044149384088 0)
(1.0047202843883 -0.00097625572546508 0)
(1.0052059897703 -0.001020537326092 0)
(1.0057134494173 -0.0010646682428206 0)
(1.0062416506487 -0.0011063773863137 0)
(1.0067907700641 -0.0011489382181799 0)
(1.0073592093286 -0.0011872220392888 0)
(1.0079478177362 -0.0012288392718283 0)
(1.0085538977812 -0.0012621062372701 0)
(1.0091797091473 -0.0013045518590183 0)
(1.009820458088 -0.0013294770194109 0)
(1.0104812878755 -0.00137706468993 0)
(1.0000004549581 -7.6617806338201e-05 0)
(1.0000263701441 -0.00023023639146413 0)
(1.0000763921342 -0.00038336887530659 0)
(1.0001515619978 -0.00053621446548725 0)
(1.0002524095575 -0.00068892716033989 0)
(1.0003790003319 -0.00084146281793493 0)
(1.0005311552142 -0.00099366913539851 0)
(1.0007086680057 -0.0011453902025574 0)
(1.0009113692778 -0.0012964443746834 0)
(1.001139153693 -0.0014467365987528 0)
(1.0013918927177 -0.0015961686347674 0)
(1.0016695004519 -0.0017447908716394 0)
(1.0019718176494 -0.0018924686868307 0)
(1.0022987734917 -0.0020392296522305 0)
(1.0026501176489 -0.0021846328016904 0)
(1.0030257767862 -0.0023287377898263 0)
(1.003425303958 -0.0024707290781039 0)
(1.0038486807422 -0.0026111116043579 0)
(1.004295144957 -0.0027484437628456 0)
(1.004764920521 -0.0028843058608272 0)
(1.005256694358 -0.0030157452192215 0)
(1.005771310504 -0.0031467065691793 0)
(1.0063063830684 -0.0032706931376692 0)
(1.0068641457896 -0.0033970372307443 0)
(1.007440036342 -0.0035111180777223 0)
(1.0080392986465 -0.0036345872582355 0)
(1.0086528837638 -0.0037342494970245 0)
(1.0092924642693 -0.0038598371278866 0)
(1.0099397303373 -0.0039357499054377 0)
(1.0106200186268 -0.004075628773389 0)
(1.0000004762167 -0.000124873395948 0)
(1.0000272137692 -0.00037545069504517 0)
(1.0000787042791 -0.00062533482146272 0)
(1.0001558854006 -0.00087484732486401 0)
(1.0002592285912 -0.0011242356577372 0)
(1.0003887983159 -0.0013734196068842 0)
(1.000544432435 -0.0016221397238831 0)
(1.0007259503284 -0.0018701264354406 0)
(1.0009331827852 -0.0021170665280985 0)
(1.0011660374225 -0.0023628031378191 0)
(1.0014243676155 -0.0026071917883559 0)
(1.0017081262803 -0.0028503510921383 0)
(1.002017134819 -0.0030920919874701 0)
(1.002351420042 -0.0033324910606429 0)
(1.0027106765336 -0.0035708286226036 0)
(1.0030950142674 -0.0038072166674232 0)
(1.0035038144053 -0.0040402947442956 0)
(1.0039374129816 -0.0042709164183641 0)
(1.0043946131843 -0.0044966714197914 0)
(1.0048763762985 -0.0047202169039795 0)
(1.005380381229 -0.0049366103057824 0)
(1.0059090547066 -0.0051524690108746 0)
(1.0064577435583 -0.0053569106780182 0)
(1.0070321230064 -0.005565574977121 0)
(1.0076225971707 -0.0057539750014576 0)
(1.0082419513973 -0.0059583784116282 0)
(1.0088700108786 -0.0061232102193323 0)
(1.0095350945355 -0.0063317354713207 0)
(1.0101944084103 -0.0064574364288877 0)
(1.010910320949 -0.0066904838829247 0)
(1.0000004838705 -0.00017174153027101 0)
(1.000028069329 -0.00051644743157198 0)
(1.0000811585073 -0.00086009031517587 0)
(1.0001606632208 -0.00120320018387 0)
(1.0002670268894 -0.0015461830832994 0)
(1.0004003058808 -0.0018889524375475 0)
(1.0005603367274 -0.0022311473102046 0)
(1.0007469568932 -0.0025723776365353 0)
(1.0009599918379 -0.0029121900987071 0)
(1.0011993681819 -0.0032503755712572 0)
(1.0014649167443 -0.0035867710501943 0)
(1.0017566467452 -0.0039216123266235 0)
(1.0020743547448 -0.0042546977093853 0)
(1.0024182058 -0.004586198215002 0)
(1.0027878207748 -0.0049151274453638 0)
(1.0031835686879 -0.0052416805864721 0)
(1.0036045958063 -0.0055639322335445 0)
(1.0040517367207 -0.0058831301138901 0)
(1.0045231947365 -0.0061958398357329 0)
(1.0050209635575 -0.006505891891328 0)
(1.0055413235423 -0.0068062214031154 0)
(1.0060889127134 -0.0071063258116875 0)
(1.0066559261792 -0.0073906289406751 0)
(1.0072528400117 -0.00768153698986 0)
(1.0078630565473 -0.0079439993493159 0)
(1.0085098794496 -0.0082299315657135 0)
(1.0091576598413 -0.0084598093947653 0)
(1.0098579392587 -0.0087527517077901 0)
(1.0105338785639 -0.0089277880886984 0)
(1.0112994856753 -0.0092568494403059 0)
(1.0000004900989 -0.00021734331318115 0)
(1.0000289783126 -0.00065367423770131 0)
(1.0000837732149 -0.0010884228078855 0)
(1.0001657670153 -0.001522392351539 0)
(1.0002753857759 -0.0019562166053484 0)
(1.0004126863563 -0.0023898431184172 0)
(1.0005775054752 -0.0028228220298723 0)
(1.000769701376 -0.0032546362899198 0)
(1.0009890918883 -0.003684680817806 0)
(1.0012356288245 -0.0041127052517664 0)
(1.0015091182806 -0.0045385638320076 0)
(1.0018096449839 -0.0049626738217554 0)
(1.0021369810344 -0.0053848759716929 0)
(1.002491472059 -0.0058054938108237 0)
(1.0028726557126 -0.0062232876216451 0)
(1.0032812340615 -0.0066385719026844 0)
(1.003716070245 -0.0070488269207689 0)
(1.0041786316978 -0.0074557497136034 0)
(1.0046663842223 -0.0078548077877542 0)
(1.0051826210335 -0.0082511269371708 0)
(1.0057218908883 -0.0086353472577543 0)
(1.0062916012589 -0.0090201119270954 0)
(1.0068800336993 -0.0093847517215768 0)
(1.0075036593952 -0.0097590316447541 0)
(1.0081371775243 -0.010096437000867 0)
(1.0088170039388 -0.010465868961249 0)
(1.0094882416388 -0.010761834684295 0)
(1.0102313540931 -0.011142324733224 0)
(1.0109271231979 -0.011367380531691 0)
(1.011753836287 -0.011797491086099 0)
(1.0000004937755 -0.00026168640626832 0)
(1.0000298685435 -0.00078717455921051 0)
(1.0000863318595 -0.0013104186950707 0)
(1.0001707473764 -0.001832570680233 0)
(1.0002835231396 -0.0023545645795873 0)
(1.0004247235217 -0.0028764222948604 0)
(1.0005941925378 -0.0033976163048762 0)
(1.0007918180357 -0.0039174939335079 0)
(1.0010174129032 -0.0044352845746264 0)
(1.0012709625508 -0.004950708987445 0)
(1.0015522497796 -0.0054636799344116 0)
(1.0018614552115 -0.0059748700223965 0)
(1.0021983322051 -0.006484226296737 0)
(1.0025634486968 -0.0069922910429367 0)
(1.0029562580943 -0.0074975872321558 0)
(1.0033778647525 -0.0080005887506671 0)
(1.0038268162235 -0.0084981494862435 0)
(1.0043053330971 -0.0089924765591226 0)
(1.0048100377139 -0.0094778588752709 0)
(1.0053457543055 -0.0099608520708116 0)
(1.0059050325341 -0.010429612766352 0)
(1.0064985222033 -0.010900222558424 0)
(1.007109969333 -0.011346481431153 0)
(1.0077628384622 -0.011806165901521 0)
(1.0084217242113 -0.012220307067959 0)
(1.0091383084219 -0.012676267700206 0)
(1.0098353276594 -0.013040356946387 0)
(1.010626896556 -0.013512771861174 0)
(1.0113445278649 -0.013789531006444 0)
(1.0122413234856 -0.014327206619527 0)
(1.0000004928113 -0.00030466712999104 0)
(1.0000306445695 -0.00091664537281759 0)
(1.0000885609373 -0.0015255723341958 0)
(1.0001750663528 -0.0021330333501761 0)
(1.0002905500479 -0.0027403415002219 0)
(1.0004350917566 -0.0033476349158143 0)
(1.0006085517392 -0.0039543193247559 0)
(1.0008108575164 -0.0045595967261128 0)
(1.0010418217191 -0.0051625170300354 0)
(1.0013014724602 -0.0057627869980751 0)
(1.0015895736197 -0.0063604253236737 0)
(1.0019064221457 -0.00695644225403 0)
(1.0022517631591 -0.0075509638003056 0)
(1.002626426825 -0.0081448241823958 0)
(1.0030297900902 -0.0087363303055542 0)
(1.003463422766 -0.0093261583140214 0)
(1.0039255416572 -0.0099105067258005 0)
(1.0044192244529 -0.010492154748152 0)
(1.0049401790985 -0.011064135997528 0)
(1.0054949520036 -0.011634570754873 0)
(1.006073898911 -0.012188948884469 0)
(1.0066912909453 -0.012747080442021 0)
(1.0073258706481 -0.01327680380808 0)
(1.0080088803768 -0.013824551933237 0)
(1.00869374337 -0.014317920958546 0)
(1.0094490865949 -0.014864196906993 0)
(1.010172884815 -0.015299271472188 0)
(1.0110165946638 -0.015868864891635 0)
(1.0117571359324 -0.016199935525367 0)
(1.0127306994241 -0.016852669439609 0)
(1.0000004854653 -0.00034608338107985 0)
(1.0000312136251 -0.0010414845970785 0)
(1.0000901924051 -0.0017328805572111 0)
(1.0001781988952 -0.0024223808965226 0)
(1.0002956053112 -0.0031117607867612 0)
(1.0004425148998 -0.0038013189528678 0)
(1.0006188128664 -0.0044904069083944 0)
(1.0008244757872 -0.0051780724039536 0)
(1.0010593218519 -0.0058631732328787 0)
(1.0013234311933 -0.0065454197011902 0)
(1.0016165559793 -0.0072249894402079 0)
(1.0019391293305 -0.0079033188467221 0)
(1.0022909032127 -0.0085807933017856 0)
(1.0026730069285 -0.0092586167674845 0)
(1.0030847576091 -0.0099349079554413 0)
(1.0035282459833 -0.010610589016042 0)
(1.0040013612628 -0.011281181864231 0)
(1.0045081233263 -0.011950096652727 0)
(1.0050432926017 -0.012609048065212 0)
(1.0056152841725 -0.01326784488092 0)
(1.0062121444856 -0.01390915108277 0)
(1.0068520418733 -0.014556766905926 0)
(1.007508416626 -0.015172185697637 0)
(1.0082208434058 -0.015811077122211 0)
(1.0089308661056 -0.016386718394944 0)
(1.0097252287315 -0.017027641806888 0)
(1.01047551986 -0.017537300848657 0)
(1.011373121838 -0.018209970633298 0)
(1.0121366877463 -0.018598912723347 0)
(1.0131913888787 -0.019374889791224 0)
(1.000000470418 -0.00038566571881737 0)
(1.0000314922415 -0.0011608878844849 0)
(1.0000909831989 -0.0019310072282765 0)
(1.000179668896 -0.0026987497159687 0)
(1.0002979085061 -0.0034664379244145 0)
(1.0004458354553 -0.0042345782038191 0)
(1.000623366947 -0.0050024826745902 0)
(1.000830536929 -0.0057690371028398 0)
(1.0010671760533 -0.0065328964425229 0)
(1.0013334253096 -0.007293794423275 0)
(1.0016290344867 -0.008052125526041 0)
(1.0019545910797 -0.0088098447779855 0)
(1.002309873179 -0.0095676841033603 0)
(1.0026963418417 -0.010327297410005 0)
(1.0031132796048 -0.011086651195808 0)
(1.0035633437709 -0.011846956207411 0)
(1.0040441178301 -0.012603049084334 0)
(1.0045606272099 -0.013359022193171 0)
(1.0051066917421 -0.014105230454722 0)
(1.0056926924222 -0.014853272906549 0)
(1.0063043353789 -0.015582872773843 0)
(1.0069638519544 -0.016322028024762 0)
(1.0076392595836 -0.017025593582502 0)
(1.008378774525 -0.017758933457948 0)
(1.0091117346575 -0.018420309331625 0)
(1.0099436368864 -0.019160556830236 0)
(1.0107188660998 -0.019749061351182 0)
(1.0116701591909 -0.02053112239327 0)
(1.0124559465589 -0.020982476422335 0)
(1.01359380781 -0.02189026181749 0)
(1.0000004467569 -0.00042310857549371 0)
(1.0000314099006 -0.0012739400065781 0)
(1.0000907315637 -0.0021184323471474 0)
(1.000179080168 -0.0029600188851233 0)
(1.0002968018516 -0.0038016557581354 0)
(1.0004440645753 -0.0046441054291399 0)
(1.0006208254886 -0.0054866569679071 0)
(1.000827184707 -0.0063280275217399 0)
(1.0010629933956 -0.0071666610510129 0)
(1.0013284609919 -0.0080023367536435 0)
(1.0016233455066 -0.0088357280589123 0)
(1.0019484039177 -0.009669402715058 0)
(1.0023034626537 -0.010504532008089 0)
(1.0026903410434 -0.011343300089032 0)
(1.0031083198949 -0.012183566763155 0)
(1.003560656881 -0.013026870856129 0)
(1.0040446697646 -0.01386737229113 0)
(1.0045664283848 -0.014709885016642 0)
(1.0051188593164 -0.015543395596487 0)
(1.0057143538718 -0.016381362406357 0)
(1.0063363339592 -0.017200516687438 0)
(1.0070111430268 -0.018033183109723 0)
(1.0077014406435 -0.01882741538792 0)
(1.0084641403111 -0.019658552171509 0)
(1.009216436994 -0.020409415758585 0)
(1.0100826676228 -0.021253815681382 0)
(1.0108800234583 -0.021926010257194 0)
(1.0118828472693 -0.022823971788815 0)
(1.012689138961 -0.023343270592473 0)
(1.0139098292974 -0.024391507174859 0)
(1.0000004134769 -0.00045809429108114 0)
(1.0000309097128 -0.001379684573448 0)
(1.0000892773299 -0.0022935699216231 0)
(1.0001761142638 -0.0032039799700233 0)
(1.0002917511984 -0.0041145880118538 0)
(1.0004363953807 -0.005026459697799 0)
(1.0006100522666 -0.0059388775702327 0)
(1.0008128953835 -0.0068503841657564 0)
(1.0010448039635 -0.0077592068461695 0)
(1.0013060613327 -0.0086651936002385 0)
(1.001596445123 -0.0095693620280772 0)
(1.001916892884 -0.010474985892766 0)
(1.0022673033167 -0.011383773036951 0)
(1.0026498724825 -0.012298515846261 0)
(1.0030639181717 -0.01321702356899 0)
(1.0035133181557 -0.014141197500611 0)
(1.0039951811873 -0.015064550904568 0)
(1.0045166336686 -0.015992642783136 0)
(1.0050697955346 -0.016913123709884 0)
(1.0056690575185 -0.017841338005756 0)
(1.0062956995093 -0.018751055368642 0)
(1.0069801085774 -0.01967895511652 0)
(1.0076798349129 -0.020566295431295 0)
(1.0084602903047 -0.021498442133321 0)
(1.0092269809671 -0.022342706452905 0)
(1.0101226250184 -0.023296045616484 0)
(1.0109380483339 -0.024057269629431 0)
(1.0119882925915 -0.025077613036172 0)
(1.0128124411251 -0.025671378037782 0)
(1.0141132838621 -0.026868496017673 0)
(1.0000003702516 -0.00049031604039829 0)
(1.0000299506797 -0.0014771968505357 0)
(1.0000864994435 -0.0024548915730533 0)
(1.0001705298588 -0.0034285089915413 0)
(1.0002823542248 -0.0044025170495875 0)
(1.0004222223237 -0.0053783284563354 0)
(1.0005901954091 -0.0063552354012529 0)
(1.0007865253491 -0.0073316003179088 0)
(1.0010111253416 -0.0083054307619223 0)
(1.0012643540258 -0.0092766668068393 0)
(1.0015460189703 -0.010246736723748 0)
(1.0018572442192 -0.011219709930566 0)
(1.0021980252594 -0.012197931032943 0)
(1.0025709439809 -0.013184874089804 0)
(1.0029753977361 -0.014178365242775 0)
(1.0034158882403 -0.015180695508434 0)
(1.0038893860011 -0.01618478644205 0)
(1.0044040580271 -0.01719694598405 0)
(1.0049513402828 -0.018203569589645 0)
(1.0055475564617 -0.019221863052949 0)
(1.0061720682788 -0.020222762555794 0)
(1.0068591216579 -0.021247209261448 0)
(1.0075615828482 -0.022229873925991 0)
(1.008352918053 -0.023265929809927 0)
(1.0091277696513 -0.024207529649393 0)
(1.0100462582642 -0.025274356060415 0)
(1.0108744543949 -0.026130340010169 0)
(1.0119660893543 -0.027279293269879 0)
(1.0128044786409 -0.027955009381965 0)
(1.0141804864489 -0.029308939221466 0)
(1.0000003172068 -0.00051950069987247 0)
(1.0000285066611 -0.0015656520150899 0)
(1.0000823227708 -0.0026010358860968 0)
(1.0001621784153 -0.0036317143214499 0)
(1.0002683629595 -0.0046630192047624 0)
(1.0004011704755 -0.0056967497504364 0)
(1.0005607235825 -0.0067322230675488 0)
(1.0007473542083 -0.00776761626104 0)
(1.0009610134991 -0.0088007162599124 0)
(1.0012021329416 -0.0098315775351538 0)
(1.0014705583348 -0.010862105078465 0)
(1.0017675988125 -0.011897246867846 0)
(1.0020933692464 -0.012940085162774 0)
(1.0024508358989 -0.013994842023047 0)
(1.0028395200312 -0.015059439470561 0)
(1.0032645342046 -0.01613657648429 0)
(1.0037227920564 -0.017218665193009 0)
(1.0042234564965 -0.018312743476919 0)
(1.0047574331008 -0.019404086903357 0)
(1.0053428580635 -0.020511680007051 0)
(1.0059574716333 -0.021603864201849 0)
(1.0066390852282 -0.022725612575287 0)
(1.0073364659562 -0.023805447807769 0)
(1.0081304636761 -0.024947821092589 0)
(1.0089060235057 -0.025990565998331 0)
(1.0098392133371 -0.027174987281956 0)
(1.0106736681834 -0.028131730905954 0)
(1.0117988017524 -0.029415036448806 0)
(1.0126467960315 -0.030181099420408 0)
(1.0140907306953 -0.03169898205447 0)
(1.0000002545273 -0.00054542454604921 0)
(1.0000265693268 -0.0016443713374603 0)
(1.0000767211733 -0.0027308850549128 0)
(1.0001510071049 -0.0038120438776734 0)
(1.000249688479 -0.0048941029944698 0)
(1.0003731025933 -0.0059792818903773 0)
(1.0005214365321 -0.0070669360939472 0)
(1.000695100362 -0.0081550518921333 0)
(1.0008940842942 -0.0092411966415571 0)
(1.0011188855882 -0.010325559473203 0)
(1.0013693939628 -0.011410586253661 0)
(1.0016470950991 -0.012502177331881 0)
(1.0019522420551 -0.013604251975491 0)
(1.0022881713951 -0.014721836659967 0)
(1.0026545713543 -0.015853038825604 0)
(1.0030571349258 -0.017000972944223 0)
(1.0034928069111 -0.018157652582627 0)
(1.0039716733126 -0.019330801106759 0)
(1.0044842868327 -0.020504767513189 0)
(1.005050425259 -0.021700168647718 0)
(1.0056465650528 -0.022883110077147 0)
(1.0063136910037 -0.024102217415801 0)
(1.0069971934688 -0.025280558094186 0)
(1.0077844359165 -0.026530992536163 0)
(1.008552124128 -0.027678411976251 0)
(1.0094904059747 -0.028983889667166 0)
(1.0103234173367 -0.030047519299403 0)
(1.0114723818503 -0.031470194320324 0)
(1.0123242676313 -0.032335825416653 0)
(1.0138267332358 -0.034023717113463 0)
(1.0000001830787 -0.00056792389531635 0)
(1.0000241462487 -0.0017128546525727 0)
(1.000069716563 -0.0028436184361239 0)
(1.0001370586568 -0.0039683601291035 0)
(1.0002263989595 -0.0050943059247327 0)
(1.0003381152503 -0.0062241224341069 0)
(1.0004724594445 -0.007357214659705 0)
(1.0006299137666 -0.0084913718589182 0)
(1.0008105053971 -0.0096239441851208 0)
(1.0010147853924 -0.010755272479069 0)
(1.0012426894666 -0.011888403825899 0)
(1.0014958636913 -0.013030253525769 0)
(1.0017747134723 -0.014185673784273 0)
(1.0020829192664 -0.01536054007405 0)
(1.002420374592 -0.016553243647004 0)
(1.0027933044185 -0.017767309275188 0)
(1.0031987749572 -0.018994490964694 0)
(1.0036476959941 -0.020243125941148 0)
(1.0041304609551 -0.021496889180991 0)
(1.0046682729513 -0.02277781641599 0)
(1.0052367483375 -0.024050261449957 0)
(1.0058795691838 -0.025365965938459 0)
(1.006539579316 -0.02664350274758 0)
(1.0073096190351 -0.028002913576868 0)
(1.0080598498318 -0.029258098147999 0)
(1.008992293572 -0.030687242556855 0)
(1.0098150186078 -0.031863849196522 0)
(1.0109764897699 -0.033429939030863 0)
(1.0118254230608 -0.034405065579044 0)
(1.0133749835061 -0.036267635096372 0)
(1.0000001036054 -0.00058690106288311 0)
(1.0000212612251 -0.0017707985300478 0)
(1.000061374935 -0.0029387429143709 0)
(1.0001204614267 -0.0040999823124307 0)
(1.0001987053873 -0.005262749045331 0)
(1.0002965193941 -0.0064301762287023 0)
(1.0004142174953 -0.0076017262675811 0)
(1.0005523442251 -0.0087749841630022 0)
(1.0007109580127 -0.009947085792338 0)
(1.0008906470057 -0.011118536608869 0)
(1.0010913908077 -0.012293039430146 0)
(1.0013149721176 -0.013478573973355 0)
(1.0015619567011 -0.014681015180851 0)
(1.001836330639 -0.015907119273342 0)
(1.0021382248109 -0.017155666437661 0)
(1.0024743303276 -0.018430573289939 0)
(1.0028419217609 -0.019723498285543 0)
(1.0032526092034 -0.021043293507915 0)
(1.0036968279102 -0.022373269007011 0)
(1.0041969510092 -0.023736598907737 0)
(1.0047281682401 -0.025096493183918 0)
(1.0053363138164 -0.026507114521125 0)
(1.0059625928215 -0.027883774449621 0)
(1.0067041568318 -0.029352100222694 0)
(1.0074264882334 -0.03071754567866 0)
(1.0083410208277 -0.03227191726581 0)
(1.0091435551627 -0.03356738119617 0)
(1.0103047035084 -0.035279707546033 0)
(1.0111426717593 -0.036374810255043 0)
(1.0127259992643 -0.038415050049336 0)
(1.0000000175415 -0.00060232610662632 0)
(1.0000179504028 -0.0018181019443444 0)
(1.0000518004731 -0.003016101314043 0)
(1.0001014204921 -0.0042066982294335 0)
(1.0001669446592 -0.0053991530414334 0)
(1.0002488135183 -0.006597076670116 0)
(1.0003473979176 -0.0077999932139891 0)
(1.0004632912652 -0.0090052750289443 0)
(1.0005965741517 -0.010209846557481 0)
(1.0007478509604 -0.011414386501331 0)
(1.0009171385216 -0.012623300151006 0)
(1.0011063253993 -0.013845667186216 0)
(1.0013161381181 -0.015088465310463 0)
(1.0015508189413 -0.016359350142556 0)
(1.0018107594411 -0.017657598060291 0)
(1.0021030364944 -0.018987488118401 0)
(1.0024252126619 -0.020340765862661 0)
(1.0027894534292 -0.02172667590835 0)
(1.0031864359924 -0.023128519347949 0)
(1.0036394161485 -0.02457026845629 0)
(1.0041236038634 -0.026014708518139 0)
(1.0046863866682 -0.027517579329016 0)
(1.0052682841887 -0.028992424476804 0)
(1.0059694982761 -0.030568501896169 0)
(1.0066528151202 -0.032045962235019 0)
(1.0075364314423 -0.033725887686721 0)
(1.008307927314 -0.035145700624661 0)
(1.0094545968479 -0.037005601616771 0)
(1.0102723959257 -0.038231525497761 0)
(1.01187444296 -0.040450393014449 0)
(0.99999992604656 -0.00061423480091005 0)
(1.0000142623296 -0.0018548609565554 0)
(1.0000411292211 -0.0030758639033485 0)
(1.0000802012775 -0.0042887514947294 0)
(1.0001315547896 -0.0055038212275373 0)
(1.0001956488517 -0.0067251660002222 0)
(1.0002729024921 -0.0079523722329664 0)
(1.0003639418362 -0.0091825901701691 0)
(1.000468857108 -0.010412533855467 0)
(1.0005882454113 -0.011643059228007 0)
(1.0007221497138 -0.012879310599638 0)
(1.0008725286633 -0.014131490608594 0)
(1.0010402611136 -0.015407746190482 0)
(1.0012297870376 -0.016716641179714 0)
(1.0014417698214 -0.018058049148401 0)
(1.0016835803574 -0.019436577961709 0)
(1.0019531364564 -0.020844246816401 0)
(1.0022629990998 -0.02229056221376 0)
(1.0026042770102 -0.023759193896066 0)
(1.0030007979539 -0.025274539405777 0)
(1.0034282384946 -0.026799751003487 0)
(1.0039348985306 -0.028391194124478 0)
(1.0044615881678 -0.029962343940215 0)
(1.0051102174292 -0.031643822702033 0)
(1.0057429470523 -0.033234178237052 0)
(1.0065819291387 -0.035038576062776 0)
(1.0073107910996 -0.036587740582024 0)
(1.0084277183133 -0.038594706035607 0)
(1.0092149891184 -0.039962679116736 0)
(1.010819159863 -0.042358470291663 0)
(0.99999983103245 -0.00062272250307051 0)
(1.0000102526064 -0.001881352363475 0)
(1.0000295211083 -0.0031185031933172 0)
(1.0000571177986 -0.0043468103627065 0)
(1.0000930515792 -0.0055776030277579 0)
(1.0001377910528 -0.0068154515769443 0)
(1.0001917930975 -0.0080600026157695 0)
(1.00025569868 -0.0093081760159862 0)
(1.0003295920048 -0.01055647506315 0)
(1.0004140375169 -0.011805932172891 0)
(1.0005090876659 -0.013062452677585 0)
(1.000616732652 -0.014337373482968 0)
(1.0007379848308 -0.015640058301344 0)
(1.0008774198284 -0.016979985547604 0)
(1.0010359677131 -0.018357708894871 0)
(1.0012211982268 -0.019778143490272 0)
(1.0014314290725 -0.021233744043643 0)
(1.0016794539037 -0.022734175961289 0)
(1.0019569765098 -0.024263818961735 0)
(1.0022880781217 -0.025847164446189 0)
(1.0026493292724 -0.027448490782858 0)
(1.0030892752248 -0.029123863875188 0)
(1.0035500088714 -0.030788428041475 0)
(1.0041336945001 -0.032571771309383 0)
(1.0047041031235 -0.034274905370088 0)
(1.0054841061102 -0.036201139640207 0)
(1.0061584840104 -0.037884065186261 0)
(1.007228988178 -0.04003553142395 0)
(1.0079756047917 -0.041557145109591 0)
(1.0095618766179 -0.044125117777145 0)
(0.99999973409311 -0.00062793482617936 0)
(1.0000059775881 -0.0018980051563504 0)
(1.0000171447877 -0.0031447432547337 0)
(1.0000325060068 -0.004381899807366 0)
(1.0000519943263 -0.0056218134859591 0)
(1.0000760752342 -0.0068695196919084 0)
(1.000105230585 -0.0081247196654036 0)
(1.0001400991796 -0.0093840936180498 0)
(1.0001807433875 -0.010643933172659 0)
(1.0002276706484 -0.011905442142218 0)
(1.0002809206223 -0.013175291113508 0)
(1.0003424730126 -0.014465948871195 0)
(1.0004134413479 -0.015788019839088 0)
(1.0004984755925 -0.017151907434011 0)
(1.0005987471382 -0.018558898886899 0)
(1.0007219384123 -0.0200142281932 0)
(1.0008667756235 -0.021510884085952 0)
(1.0010461427062 -0.023058673967331 0)
(1.0012524437554 -0.024642889611264 0)
(1.0015097259235 -0.026287977808861 0)
(1.0017958115909 -0.027959832642725 0)
(1.0021588408548 -0.029713669434827 0)
(1.002543193487 -0.031467582641714 0)
(1.0030496492438 -0.033348321740406 0)
(1.0035463230228 -0.03516276089504 0)
(1.0042521622762 -0.037207003494156 0)
(1.0048611914763 -0.039026916096163 0)
(1.0058648496619 -0.041317734326285 0)
(1.0065656637965 -0.043006668225145 0)
(1.0081030657604 -0.04573421043335 0)
(0.99999963410485 -0.00063005111697441 0)
(1.0000014884142 -0.0019053408768462 0)
(1.000004145983 -0.0031554944262105 0)
(1.000006677637 -0.0043953228323284 0)
(1.0000089286057 -0.0056381363623972 0)
(1.0000113367111 -0.0068894181311351 0)
(1.0000143921034 -0.0081489172565618 0)
(1.0000187116113 -0.009413059539639 0)
(1.0000243247924 -0.010677930618233 0)
(1.0000316652697 -0.011944902529918 0)
(1.0000407427166 -0.013221404309542 0)
(1.0000534725714 -0.014521010726686 0)
(1.0000710244953 -0.015855564341086 0)
(1.0000980507405 -0.017236394964245 0)
(1.00013592894 -0.018665551099921 0)
(1.0001923727051 -0.020148628120978 0)
(1.0002664978726 -0.021679171649754 0)
(1.0003711647599 -0.023267231722766 0)
(1.0004995028965 -0.024898983464851 0)
(1.0006753202904 -0.026599048205085 0)
(1.0008778706226 -0.028334819689083 0)
(1.0011544248637 -0.03016104908925 0)
(1.0014523416339 -0.031998642400403 0)
(1.0018697916136 -0.033971877138929 0)
(1.0022813710796 -0.035893871369778 0)
(1.002898624485 -0.038052407625856 0)
(1.0034302420832 -0.040009155779775 0)
(1.0043488316084 -0.042434668632954 0)
(1.0049918311804 -0.044298627653803 0)
(1.0064603954707 -0.04717570567417 0)
(0.99999953131946 -0.00062928976472343 0)
(0.99999682001322 -0.0019040079176052 0)
(0.99999065917391 -0.0031517842829456 0)
(0.99997992522326 -0.0043884820748468 0)
(0.99996436866349 -0.0056283533154181 0)
(0.99994436778242 -0.0068773159470446 0)
(0.99992041516422 -0.0081351630167401 0)
(0.99989307490702 -0.0093980405835007 0)
(0.9998623223015 -0.010661820578353 0)
(0.99982849832576 -0.011928011999311 0)
(0.99979159780221 -0.013204798611265 0)
(0.9997534041187 -0.014506827277223 0)
(0.99971511675429 -0.015847188017462 0)
(0.99968126108046 -0.017238100511948 0)
(0.99965342903566 -0.018682412729404 0)
(0.99963920785522 -0.02018607715213 0)
(0.99963817238089 -0.021743221746878 0)
(0.99966293732563 -0.023364231638412 0)
(0.99970748269324 -0.025036024251473 0)
(0.99979506925208 -0.026783851493303 0)
(0.99990656167896 -0.028575885147654 0)
(1.0000879783164 -0.030467925197132 0)
(1.0002898979926 -0.032381361995271 0)
(1.0006074934491 -0.034442176039398 0)
(1.0009223001471 -0.036463759180076 0)
(1.0014382036384 -0.038735126717452 0)
(1.0018794721131 -0.040821210461938 0)
(1.0026980280863 -0.043382813265596 0)
(1.0032683273989 -0.045416069759291 0)
(1.004649441694 -0.048434575677183 0)
(0.9999994214832 -0.00062596111392303 0)
(0.99999209521202 -0.0018949124234044 0)
(0.99997696907881 -0.0031350257301332 0)
(0.99995271785037 -0.0043631740504698 0)
(0.99991898297361 -0.0055945692868064 0)
(0.99987605828942 -0.0068355855290254 0)
(0.99982446226908 -0.008086018550431 0)
(0.9997646992278 -0.0093418189065996 0)
(0.99969669512818 -0.010598710893908 0)
(0.99962064699288 -0.011858217530821 0)
(0.99953653202176 -0.013129175882582 0)
(0.99944588452206 -0.014427212187124 0)
(0.99934998506755 -0.01576672763676 0)
(0.99925302264681 -0.017160785166707 0)
(0.99915696767497 -0.018613190068047 0)
(0.99906889727899 -0.020130121040071 0)
(0.99898926089852 -0.021706514338214 0)
(0.9989296954723 -0.023352860438592 0)
(0.99888588717337 -0.025057063068302 0)
(0.99887919527062 -0.026844936152069 0)
(0.99889371582405 -0.028685235019533 0)
(0.9989718895888 -0.030635978002933 0)
(0.99907024171494 -0.032616295562215 0)
(0.99927723172138 -0.034760107520752 0)
(0.99948547074425 -0.036869112154397 0)
(0.99988627016366 -0.039256757152091 0)
(1.0002264638776 -0.04145219293567 0)
(1.0009307574153 -0.044174435007177 0)
(1.0014232567246 -0.046339584468228 0)
(1.0026910361859 -0.04953976566647 0)
(0.99999928424867 -0.00062056044217228 0)
(0.99998748854435 -0.0018796290423039 0)
(0.99996358842581 -0.0031077149260212 0)
(0.99992587335178 -0.0043226749554773 0)
(0.99987382325534 -0.0055406556493466 0)
(0.99980773813251 -0.0067686509075707 0)
(0.99972812587332 -0.0080061306806167 0)
(0.99963530554474 -0.0092489500978349 0)
(0.99952934759187 -0.010493005405018 0)
(0.99941043820377 -0.011739905435436 0)
(0.99927849347924 -0.012999052071926 0)
(0.99913454169977 -0.0142868391036 0)
(0.99897993614943 -0.01561896011724 0)
(0.99881825857847 -0.017009232017399 0)
(0.99865216144099 -0.018462715106606 0)
(0.99848767926671 -0.019985634617204 0)
(0.9983269419537 -0.021574376344039 0)
(0.99817927820586 -0.023238906634439 0)
(0.99804400834198 -0.024969383837714 0)
(0.99793739940254 -0.026790719464994 0)
(0.99785139366424 -0.02867458553156 0)
(0.99781769334177 -0.030678926321866 0)
(0.99780923372885 -0.032723147245254 0)
(0.99789213816198 -0.034949151428487 0)
(0.99799200821388 -0.037140994007919 0)
(0.99825522928747 -0.039658757817323 0)
(0.99849479935108 -0.041939612081227 0)
(0.99905037709621 -0.044895500837377 0)
(0.99949104164198 -0.04709467704974 0)
(1.0006081957197 -0.050753275038802 0)
(0.99999905780569 -0.0006143276404218 0)
(0.99998261488758 -0.0018619420394381 0)
(0.99995024908351 -0.0030768340168651 0)
(0.99989933728218 -0.0042778829406068 0)
(0.99982896931331 -0.005481874101148 0)
(0.99973983118267 -0.0066963221194868 0)
(0.99963254329614 -0.007920362112471 0)
(0.99950661573868 -0.0091494260949877 0)
(0.99936222903229 -0.010379153436078 0)
(0.9991999058964 -0.011611392522198 0)
(0.99901969593545 -0.01285659508682 0)
(0.99882208739161 -0.014132380745903 0)
(0.99860834135172 -0.015456101338219 0)
(0.998381201835 -0.016842433785823 0)
(0.99814395925113 -0.018297924901332 0)
(0.99790134847934 -0.019828525388679 0)
(0.99765748525 -0.021432807275092 0)