/*--------------------------------*- C++ -*----------------------------------*\
| =========                 |                                                 |
| \\      /  F ield         | OpenFOAM: The Open Source CFD Toolbox           |
|  \\    /   O peration     | Version:  2112                                  |
|   \\  /    A nd           | Website:  www.openfoam.com                      |
|    \\/     M anipulation  |                                                 |
\*---------------------------------------------------------------------------*/
FoamFile
{
    version     2.0;
    format      ascii;
    arch        "LSB;label=32;scalar=64";
    class       surfaceScalarField;
    location    "8.6";
    object      phi;
}
// * * * * * * * * * * * * * * * * * * * * * * * * * * * * * * * * * * * * * //

dimensions      [0 3 -1 0 0 0 0];

oriented        oriented;

internalField   nonuniform List<scalar> 
43645
(
0.39512388096539
-5.0078726325667e-06
0.39513889805358
-1.5017054215627e-05
0.39516395754708
-2.50594568317e-05
0.39519902944061
-3.5071855682331e-05
0.39524401625311
-4.4986774515612e-05
0.39529875608399
-5.473979330574e-05
0.39536305030775
-6.4294186914823e-05
0.39543669954599
-7.3649202238176e-05
0.39551952132676
-8.2821745708099e-05
0.39561135631374
-9.1834952835798e-05
0.39571205291585
-0.0001006965689698
0.39582146459146
-0.00010941164338216
0.39593942741857
-0.00011796279586278
0.39606577632673
-0.00012634887778887
0.3962003156794
-0.000134539323219
0.39634286787094
-0.00014255216288535
0.3964932117351
-0.00015034383635149
0.39665118090745
-0.0001579691452036
0.3968165142538
-0.00016533331990594
0.39698905721444
-0.00017254293473033
0.39716843786363
-0.00017938062383911
0.39735452500749
-0.00018608711888164
0.3975467566909
-0.00019223165885223
0.39774516893373
-0.00019841221848552
0.39794893627672
-0.00020376731891222
0.39815860926589
-0.00020967296517953
0.39837284508511
-0.00021423579538786
0.39859331277144
-0.00022046766276862
0.3988173450643
-0.00022403226984363
-0.00023154381313477
0.39904888890082
0.3729472654939
-9.7185742505022e-06
0.37296148695114
-2.9238456617801e-05
0.37298536272078
-4.8935170716274e-05
0.37301886703068
-6.8576109921694e-05
0.37306190813263
-8.8027821578975e-05
0.37311434050234
-0.00010717210911861
0.37317598865002
-0.00012594228191865
0.37324667573324
-0.00014433623396716
0.37332623655532
-0.00016238251759722
0.37341452294175
-0.00018012129031528
0.3735113905195
-0.00019756409909623
0.37361669820329
-0.00021471928078064
0.3737302882058
-0.00023155275328402
0.37385200223303
-0.00024806286108976
0.37398165334768
-0.00026419039515913
0.37411907217717
-0.00027997095070691
0.37426404760347
-0.00029531922205473
0.37441642028773
-0.00031034178973174
0.37457593861707
-0.00032485161041855
0.37474245043187
-0.00033905471134264
0.37491559125629
-0.00035252141079089
0.37509522360173
-0.00036571942729786
0.37528079160374
-0.00037779962434529
0.37547231302508
-0.00038993360356356
0.37566897391331
-0.00040042817122692
0.37587129191441
-0.00041199093043933
0.37607795730677
-0.0004209011521125
0.37629058535935
-0.00043309568014835
0.37650659263737
-0.00044003951396552
-0.00045480078078086
0.37672984963986
0.35201559032923
-1.4411323760485e-05
0.35202965882248
-4.3306892516844e-05
0.35205314776116
-7.2424051966905e-05
0.35208602644857
-0.00010145474059632
0.35212821427509
-0.00013021559257432
0.35217958877658
-0.00015854655637058
0.3522400034713
-0.00018635692387823
0.35230930835824
-0.00021364106954518
0.3523873571291
-0.00024043123863208
0.35247401182075
-0.00026677593354167
0.35256913228415
-0.00029268451563071
0.35267257982941
-0.00031816678055738
0.35278419990262
-0.00034317278250724
0.35290384007667
-0.00036770299242047
0.35303132115113
-0.00039167142828474
0.35316648347182
-0.00041513323115309
0.35330912492371
-0.00043796063488774
0.35345909583185
-0.00046031265968038
0.3536161502203
-0.00048190596161896
0.3537801430925
-0.00050304754689988
0.35395070786535
-0.00052308614769756
0.35412771162981
-0.0005427231561436
0.35431058200258
-0.00056066996196958
0.35449934310471
-0.0005786946706391
0.35469313739341
-0.00059422242512452
0.35489250611999
-0.00061135962209669
0.35509603960063
-0.00062443459789225
0.35530543302652
-0.00064248907138748
0.35551787236165
-0.00065247881567478
-0.00067437587374784
0.35573744748935
0.33225872358869
-1.9090904171158e-05
0.33227271713288
-5.7300385938688e-05
0.33229602863286
-9.5735501022853e-05
0.33232860757116
-0.00013403362851061
0.33237037608398
-0.00017198405603952
0.33242123589284
-0.00020940631695969
0.33248107522036
-0.00024619620442508
0.33254977642432
-0.00028234222774397
0.33262721509925
-0.0003178698691627
0.33271326402917
-0.00035282482031839
0.33280778627686
-0.00038720672157385
0.3329106443001
-0.00042102476327816
0.33302168586471
-0.00045421430795047
0.33314076448797
-0.00048678157765424
0.33326770920693
-0.00051861611046791
0.33340237143998
-0.0005497954283759
0.33354455869949
-0.00058014785965888
0.333694132176
-0.00060988610219449
0.3338508502105
-0.00063862396298286
0.33401457509414
-0.00066677239792542
0.33418493299668
-0.00069344401825449
0.33436179564274
-0.00071958577049546
0.33454456314195
-0.00074343742991018
0.33473327014088
-0.000767401638361
0.33492699462009
-0.00078794687336411
0.33512632083507
-0.00081068580600044
0.33532969989966
-0.00082781363149734
0.33553897120446
-0.00085176034541155
0.33575101513505
-0.0008645227166492
-0.00089368556248497
0.33597032485469
0.31361075043826
-2.3783919179055e-05
0.31362474481724
-7.1294719578599e-05
0.31364800532299
-0.00011899596146952
0.31368046370702
-0.0001664919678649
0.31372204584377
-0.00021356614916145
0.31377268029233
-0.00026004072300134
0.31383229447256
-0.00030581034343018
0.31390080783091
-0.00035085554607702
0.31397812140896
-0.00039518340856631
0.31406412080765
-0.0004388241815947
0.31415867344473
-0.00048175932261791
0.3142616439946
-0.00052399527829881
0.31437288411153
-0.00056545439136465
0.31449225567375
-0.00060615310741158
0.31461959909877
-0.00064595950422672
0.31475478083799
-0.00068497713720222
0.31489762220958
-0.00072298920184065
0.31504800011063
-0.00076026397448332
0.31520568102594
-0.00079630485028926
0.31537053905465
-0.00083163039901591
0.31554219394026
-0.00086509887675944
0.31572052532182
-0.00089791712509431
0.31590490052127
-0.0009278126026802
0.31609536940689
-0.00095787049721792
0.31629093084486
-0.00098350828465017
0.31649222708735
-0.001011982021527
0.31669753670673
-0.0010331232238311
0.31690888429513
-0.0010631079067648
0.3171227617171
-0.0010784001124467
-0.001115094046059
0.31734417022832
0.29600941830141
-2.8500320744674e-05
0.2960234395338
-8.5315910301374e-05
0.29604668689405
-0.00014224328012149
0.29607907433935
-0.00019887937214437
0.29612053339208
-0.00025502516182396
0.29617102307165
-0.00031053036347025
0.29623051461162
-0.00036530184545068
0.29629896912766
-0.00041931002522454
0.29637631695506
-0.00047253120029728
0.29646245949488
-0.00052496668681598
0.29655727109039
-0.00057657088480146
0.2966606212845
-0.00062734544013068
0.29677236888215
-0.00067720195795039
0.29689238807159
-0.0007261722667316
0.29702053541461
-0.00077410681824663
0.29715669766932
-0.00082113936369284
0.29730071566562
-0.00086700717086363
0.29745248788356
-0.00091203616573437
0.29761179449503
-0.0009556114358129
0.29777852714527
-0.00099836302367662
0.29795230293876
-0.0010388746451905
0.29813301485868
-0.0010786290201111
0.29831999718963
-0.0011147949090661
0.2985133218675
-0.0011511951504699
0.29871190046112
-0.0011820868538251
0.29891644689868
-0.0012165284344292
0.29912504183079
-0.0012417181313114
0.2993399286782
-0.0012779947296166
0.29955714746934
-0.0012956188798977
-0.0013402303025879
0.29978228375098
0.2793959675338
-3.3233299297403e-05
0.27940999368036
-9.9342020070846e-05
0.27943318892954
-0.0001654384926817
0.27946544930815
-0.00023113971469323
0.27950671344509
-0.00029628926361548
0.27955697385923
-0.00036079074333433
0.27961624954289
-0.00042457749591817
0.27968454727287
-0.00048760772297554
0.27976183029831
-0.00054981419464411
0.27984801901928
-0.00061115537767027
0.27994299792295
-0.00067154975952218
0.28004664492207
-0.0007309924112364
0.28015883025777
-0.00078938726677091
0.28027944537788
-0.00084678736079575
0.28040836894605
-0.0009030303613885
0.28054551447318
-0.00095828486648726
0.28069074958088
-0.0010122422550614
0.28084400174321
-0.0010652883050638
0.28100507260098
-0.0011166822712383
0.28117387912908
-0.0011671695297044
0.28135004283017
-0.0012150383246708
0.28153347798642
-0.0012620641548103
0.28172349022223
-0.0013048071235849
0.28192018271352
-0.001347887620344
0.28212237784661
-0.0013842819655927
0.2823308756758
-0.0014250262420175
0.28254354368766
-0.0014543861215431
0.28276287419071
-0.0014973252110076
0.28298441107358
-0.0015171557418206
-0.001570214354752
0.28321439514819
0.26371493930516
-3.7963122594167e-05
0.26372891103147
-0.00011331371315763
0.26375195499444
-0.00018848242258661
0.2637839496916
-0.00026313437924141
0.26382484210426
-0.0003371816444376
0.26387466047673
-0.00041060908467
0.26393347447417
-0.00048339146313585
0.26400133967762
-0.00055547289697767
0.26407825549522
-0.00062672998376528
0.26416416463062
-0.0006970644854005
0.26425896543812
-0.00076635054035959
0.26436254837085
-0.00083457531809943
0.2644748001739
-0.00090163904494216
0.26459563522605
-0.00096762238878799
0.26472496106132
-0.001032356173406
0.26486272512975
-0.0010960489122751
0.26500883011712
-0.0011583472205841
0.26516324085288
-0.0012196990194172
0.26532578970842
-0.0012792311060126
0.26549642817935
-0.0013378079801557
0.26567479162093
-0.0013934017462476
0.26586082560289
-0.0014480981168707
0.26605381522701
-0.0014977967281471
0.26625390644124
-0.0015479788149779
0.26645983638608
-0.0015902118910378
0.26667250685752
-0.0016376966939106
0.26688956553809
-0.0016714447826695
0.26711378023379
-0.001721539887364
0.26734016849778
-0.0017435439872179
-0.0018057250495334
0.2675756792125
0.24891399007323
-4.2660477961516e-05
0.24892782013324
-0.00012714374411161
0.24895056902618
-0.00021123128661711
0.24898209866009
-0.00029466398464928
0.24902236545353
-0.00037744841002696
0.2490714347781
-0.00045967838197068
0.24912942876724
-0.00054138542578197
0.24919645395828
-0.00062249806215942
0.24927254857859
-0.00070282457905696
0.24935768075428
-0.00078219663673215
0.24945176654286
-0.00086043630544216
0.24955471330396
-0.00093752205635205
0.24966642957405
-0.0010133552930466
0.2497868584611
-0.0010880512544407
0.24991594330757
-0.0011614409992792
0.25005367281823
-0.0012337784028262
0.25019999337865
-0.0013046677615968
0.25035491593136
-0.0013746215530829
0.25051831376278
-0.0014426289189616
0.25069018301378
-0.0015096772128934
0.25087018431721
-0.001573403031851
0.25105830608852
-0.0016362198704213
0.25125382475162
-0.0016933153737986
0.25145694199476
-0.0017510960406055
0.25166631947209
-0.0017995893510662
0.25188297550886
-0.0018543527132132
0.25210434112654
-0.0018928103830315
0.25233348032594
-0.0019506790695234
0.25256487297464
-0.0019749366193682
-0.0020470666886952
0.25280621463166
0.23494371659709
-4.7289490191632e-05
0.23495729871865
-0.00014072583973665
0.23497957901762
-0.00023351155975727
0.23501040415828
-0.0003254890997748
0.23504974085027
-0.00041678507700251
0.23509769209079
-0.00050762959790554
0.23515443301444
-0.00059812632546014
0.23522012205471
-0.00068818707893002
0.23529483804131
-0.0007775405428241
0.23537857711703
-0.00086593569012511
0.23547127660386
-0.00095313577064626
0.23557286492183
-0.0010391103532089
0.23568327746624
-0.0011237678170606
0.23580249156119
-0.0012072653294701
0.23593049297355
-0.001289442392411
0.23606731861548
-0.0013706040259298
0.23621296700028
-0.0014503161281916
0.23636750374792
-0.0015291582828358
0.23653085350111
-0.0016059786548043
0.23670306731624
-0.0016818910108892
0.23688384386203
-0.0017541795609383
0.23707322633907
-0.0018256023308778
0.23727049805117
-0.0018905870696659
0.23747592884565
-0.0019565268188517
0.23768812463739
-0.0020117851268746
0.23790822846066
-0.0020744565204944
0.23813347796376
-0.002118059870386
0.23836723350156
-0.0021844345917718
0.23860343937179
-0.0022111424747681
-0.0022942107549052
0.23885058345399
0.22175749086462
-5.1810542970373e-05
0.22177070812061
-0.00015394307290835
0.22179233057754
-0.000255133993943
0.22182219120158
-0.00035534970126859
0.22186026745179
-0.00045486130508058
0.22190669941428
-0.0005540615385779
0.2219617143828
-0.00065314127263262
0.2220255222876
-0.00075199496272689
0.22209824328132
-0.00085026151606194
0.22217990334864
-0.00094759573733114
0.22227046405596
-0.0010436964584269
0.22236987848607
-0.0011385247641484
0.22247811334167
-0.0012320026540807
0.22259518490491
-0.0013243368744784
0.22272112716089
-0.0014153846307405
0.22285603128232
-0.0015055081300179
0.22299995554547
-0.0015942403745409
0.22315302797143
-0.0016822306922462
0.22331523468706
-0.0017681853543597
0.22348669114301
-0.0018533474509282
0.22366714781797
-0.0019346362204053
0.22385671257701
-0.0020151670745061
0.22405469638647
-0.0020885708640632
0.22426144023889
-0.002163270656225
0.22447553449687
-0.0022258793701049
0.22469822428796
-0.0022971462968207
0.22492664384914
-0.0023464794170823
0.2251643881224
-0.0024221788507677
0.22540500324055
-0.0024517575793605
-0.0025467953543438
0.22565758785464
0.20931130429629
-5.6182869755355e-05
0.2093240366278
-0.00016667538397688
0.20934480899935
-0.00027590634507657
0.20937344213556
-0.00038398281717641
0.20940992410915
-0.00049134325867499
0.2094544304644
-0.00059856787402202
0.20950723843122
-0.00070594922001242
0.20956860766085
-0.00081336417311455
0.20963869916823
-0.00092035300460674
0.20971756964068
-0.0010264661911875
0.20980520701178
-0.0011313338113729
0.2099015917478
-0.0012349094822689
0.21000672529757
-0.0013371361864268
0.21012066647526
-0.0014382780349909
0.21024350198441
-0.0015382201232037
0.21037538190845
-0.001637388037607
0.2105164306318
-0.001735289081907
0.21066684487543
-0.0018326449200941
0.21082668174081
-0.0019280222044016
0.21099612904124
-0.0020227947361712
0.21117500441606
-0.0021135115804557
0.21136348689995
-0.0022036495437241
0.21156094469236
-0.0022860286421686
0.21176777464961
-0.0023701005992293
0.2119826366625
-0.0024407413690964
0.21220672344018
-0.0025212330606485
0.21243743560986
-0.0025771915732526
0.21267785058916
-0.0026625938168352
0.21292249316373
-0.0026964001414047
-0.0028043897985078
0.21318008762141
0.19756362098354
-6.0367305825373e-05
0.19757575192247
-0.00017880630452795
0.19759549035218
-0.00029564475638555
0.19762264541972
-0.00041113786636185
0.19765721520021
-0.0005259130210335
0.19769940813935
-0.00064076079513858
0.19774954784622
-0.0007560889091099
0.19780794050696
-0.0008717568162038
0.19787478623407
-0.00098719871436553
0.19795017214605
-0.0011018520859551
0.19803411359993
-0.0012152752483803
0.19812662004557
-0.0013274159111877
0.19822772981894
-0.0014382459434486
0.19833754634853
-0.0015480945483913
0.19845621189336
-0.0016568856522431
0.19858393827263
-0.0017651144012559
0.19872092055712
-0.0018722713511671
0.19886742849648
-0.0019791528443954
0.19902359827382
-0.0020841919670733
0.19918969603709
-0.002188892484914
0.1993656217424
-0.0022894372716228
0.19955163028717
-0.0023896580744628
0.19974717928541
-0.0024815776267412
0.19995271052564
-0.0025756318258763
0.20016702914871
-0.0026550599789387
0.20039124003515
-0.0027454439339391
0.20062308648569
-0.0028090380109955
0.20086524759433
-0.0029047549129844
0.20111291385828
-0.0029440663935593
-0.0030657121405268
0.20137423621306
0.18647523815887
-6.4328078734197e-05
0.18648666294934
-0.00019023107813638
0.18650520190126
-0.00031418369135728
0.18653065352592
-0.00043658947407572
0.18656302501752
-0.00055828449583595
0.18660255444948
-0.00068029021034207
0.18664960724014
-0.00080314168321049
0.18670453167388
-0.00092668123343197
0.18676756395751
-0.0010502309817126
0.18683882018562
-0.0011731082978466
0.18691834296587
-0.00129479801268
0.18700617101092
-0.0014152439403578
0.18710238017937
-0.0015344550963132
0.18720711890452
-0.0016528332580544
0.18732058592482
-0.0017703526573646
0.18744305553865
-0.0018875840000305
0.18757479589667
-0.0020040116944672
0.18771615187037
-0.002120508803512
0.18786734461344
-0.002235384695932
0.18802872252429
-0.0023502703816879
0.18820028100655
-0.0024609957401878
0.18838235409286
-0.0025717311472245
0.18857451661916
-0.002673740139866
0.18877725353891
-0.0027783687325771
0.18898954358385
-0.0028673500111988
0.18921246363566
-0.0029683639732012
0.18944393446526
-0.0030405088284177
0.18968669310632
-0.0031475135421793
0.18993590287251
-0.0031932761485572
-0.0033298097054241
0.19020000044954
0.17600915447526
-6.8033779166155e-05
0.17601978548568
-0.00020086207279973
0.17603698496894
-0.00033138315875366
0.17606054293503
-0.00046014742426149
0.17609047467423
-0.00058821621924269
0.17612704374167
-0.00071685926201875
0.17617065157508
-0.00084674950102475
0.1762216831043
-0.00097771274708053
0.17628040673369
-0.0011089545957267
0.17634696513702
-0.0012396666858436
0.17642142683999
-0.0013692597005272
0.17650385880562
-0.0014976758908979
0.17659437345439
-0.0016249697302229
0.17669316280481
-0.0017516225936524
0.17680048090716
-0.0018776707451516
0.17691666305311
-0.0020037661314854
0.17704205037718
-0.0021293990043382
0.1771770624993
-0.0022555209115416
0.17732200870016
-0.0023803308830442
0.1774773210815
-0.002505582749433
0.17764310059176
-0.0026267752372319
0.1778197628819
-0.0027483934243288
0.17800701833293
-0.0028609955782519
0.17820541124591
-0.0029767616330875
0.17841408191032
-0.0030760206635236
0.17863417758416
-0.0031884596351269
0.17886370618564
-0.0032700374183506
0.17910556628788
-0.0033893736331901
0.17935491999822
-0.0034426298482668
-0.0035953304032646
0.17962044070764
0.16613044721742
-7.1459002503688e-05
0.16614021516977
-0.00021063001012669
0.16615596507969
-0.00034713305352804
0.1661774804729
-0.00048166280228685
0.16620478349572
-0.00061551922702097
0.16623815861448
-0.00075023436579386
0.16627803685792
-0.00088662772966672
0.16632483341538
-0.001024509289822
0.16637884382064
-0.0011629649864883
0.16644023394124
-0.001301056792009
0.16650909602046
-0.0014381217655172
0.16658552311904
-0.001574102975283
0.16666966171779
-0.0017091083149585
0.1667617443204
-0.001843705182277
0.1668620770293
-0.0019780034402599
0.16697105238482
-0.0021127414732604
0.16708908182568
-0.0022474284316975
0.16721665669551
-0.00238309576798
0.16735417450796
-0.0025178486824165
0.16750215036514
-0.002653558593724
0.16766079569282
-0.0027854205524131
0.16783061332999
-0.0029182110492399
0.16801145329418
-0.0030418355306065
0.16820394749144
-0.0031692558187591
0.168407381134
-0.0032794542949125
0.16862303053907
-0.0034041090292429
0.16884898845711
-0.003495995325798
0.16908832518412
-0.0036287103499073
0.16933626723428
-0.0036905718886239
-0.0038607244366705
0.16960166127847
0.15680615462858
-7.4584927463703e-05
0.1568150097889
-0.00021948515586672
0.15682923223427
-0.00036135548423197
0.15684860081676
-0.00050103137018329
0.15687314310378
-0.00064006149967114
0.15690315955574
-0.00078025080356146
0.15693910386145
-0.00092257202149652
0.15698141461979
-0.0010668200345001
0.15703040893735
-0.0012119592907029
0.1570862717587
-0.0013569196001923
0.15714911555916
-0.0015009655530655
0.15721905628357
-0.0016440436868534
0.15729627076202
-0.0017863227807648
0.15738102735253
-0.0019284617601605
0.15747367899742
-0.0020706550726848
0.15757466970065
-0.0022137321640455
0.15768447609657
-0.0023572348153914
0.15780365552047
-0.0025022751797566
0.1579326908071
-0.0026468839572305
0.15807217676958
-0.0027930445446052
0.15822243516729
-0.0029356789389414
0.15838406267076
-0.0030798385418326
0.15855704411281
-0.0032148169622718
0.15874213011946
-0.0033543418153573
0.15893872730324
-0.0034760514690943
0.15914830523331
-0.0036136869500071
0.15936898692142
-0.0037166770049484
0.1596041682679
-0.0038638916876853
0.15984900314041
-0.0039354067527481
-0.0041242793903845
0.16011255810357
0.14800516551522
-7.7399499191798e-05
0.1480130780094
-0.00022739763552314
0.14802572784007
-0.00037400530041727
0.14804289098322
-0.00051819449912442
0.1480645987361
-0.00066176923881752
0.14809116230817
-0.00080681436232424
0.14812305081815
-0.00095446051873923
0.1481607192184
-0.0011044884224823
0.14820450034336
-0.0012557404039324
0.14825459380974
-0.0014070130552155
0.14831112836412
-0.0015575000964717
0.14837423879457
-0.0017071541065162
0.14844412707127
-0.0018562110468976
0.14852109173981
-0.002005426418187
0.14860552562828
-0.002155088950787
0.14869791658573
-0.0023061231111406
0.14879879898242
-0.0024581172019128
0.14890878796692
-0.0026122641541975
0.14902844592057
-0.0027665419011159
0.1491584411742
-0.0029230397887431
0.14929920111791
-0.0030764388736093
0.1494514215831
-0.003232058998392
0.14961520948909
-0.0033786048601726
0.1497914714521
-0.0035306037707424
0.14997969876319
-0.0036642787730965
0.15018163562489
-0.0038156238049871
0.15039533504279
-0.0039303764164742
0.15062467731704
-0.0040932339557351
0.15086455089179
-0.0041752803213691
-0.0043840605409681
0.15112433204963
0.13969811485991
-7.9897085041415e-05
0.13970507407954
-0.00023435683976252
0.13971613786251
-0.00038506906815631
0.13973108099978
-0.00053313762181048
0.1397499367014
-0.00068062492673946
0.13977302160881
-0.00082989925692163
0.13980081307009
-0.00098225196820141
0.13983377536145
-0.0011374507028957
0.13987225112057
-0.0012942161529757
0.13991644998943
-0.0014512119146512
0.13996651262511
-0.0016075627233307
0.14002258819172
-0.0017632296646316
0.14008489800901
-0.0019185208560021
0.14015376407465
-0.0020742924757402
0.14022961086875
-0.0022309357369553
0.14031296141064
-0.0023894736451248
0.1404043983281
-0.002549554111619
0.14050458425582
-0.0027124500742912
0.14061415263871
-0.0028761102767018
0.14073383598937
-0.0030427231324068
0.14086415932029
-0.0032067621980505
0.14100591837245
-0.0033738180445995
0.14115932389534
-0.0035320103777618
0.14132546579822
-0.0036967456689424
0.14150390098153
-0.0038427139523816
0.14169668409543
-0.0040084069153499
0.14190184601235
-0.0041355383302464
0.14212367755271
-0.0043150654930358
0.14235678551163
-0.0044083882769831
-0.0046379945911907
0.14261071956639
0.13185728486617
-8.2077204924158e-05
0.13186329690108
-0.00024036885611381
0.13187279042518
-0.00039456257375895
0.13188554011438
-0.00054588729357739
0.13190157834935
-0.00069666314577351
0.13192122174601
-0.00084954263916936
0.1319449492721
-0.0010059794814549
0.13197322809009
-0.0011657295094358
0.13200640529203
-0.0013273933447738
0.132044695969
-0.0014895025824717
0.13208824835269
-0.0016511150987068
0.13213722080273
-0.0018122021068771
0.13219184781461
-0.0019731478605053
0.13225246687466
-0.0021349115285879
0.13231952537905
-0.0022979942343154
0.13239357095243
-0.002463519211544
0.13247522468344
-0.0026312078358334
0.13256518424689
-0.0028024096311114
0.1326641448828
-0.0029750709063482
0.1327728895624
-0.0031514678061553
0.13289203583147
-0.0033259084619076
0.13302246611486
-0.0035042483234518
0.13316449397448
-0.0036740382336861
0.13331937142766
-0.0038516231192584
0.1334867350227
-0.0040100775454191
0.13366890381211
-0.0041905757034576
0.13386405494719
-0.0043306894645356
0.13407680944614
-0.0045278199912553
0.13430175865184
-0.0046333374814549
-0.0048843942699667
0.13454815833323
0.12445651260394
-8.39434469599e-05
0.12446159587291
-0.00024545209889165
0.12446955954869
-0.00040252622276296
0.12448017854529
-0.00055650626466948
0.12449348069362
-0.00070996527066727
0.12450977634631
-0.00086583827065392
0.12452953929054
-0.0010257424066774
0.1245532336572
-0.0011894238590492
0.1245812068869
-0.00135536655914
0.12461367562744
-0.0015219713090194
0.12465079237487
-0.0016882318332157
0.12469271924562
-0.0018541289654178
0.12473969851263
-0.0020201271158291
0.12479207348193
-0.0021872864864844
0.1248503070386
-0.0023562277798337
0.12491495713612
-0.0025281692980701
0.1249866752883
-0.0027029259772698
0.12506617463668
-0.0028819089690447
0.12515420829339
-0.0030631045531066
0.12525158208189
-0.0032488415853113
0.12535901939094
-0.0034333457624759
0.12547744252376
-0.003622671448761
0.12560732150732
-0.0038039172108759
0.12574999017798
-0.0039942917847351
0.12590521983496
-0.0041653071984208
0.12607548162615
-0.0043608374917277
0.12625904275046
-0.0045142505867413
0.12646104126306
-0.0047298185019735
0.12667642948936
-0.0048487257053425
-0.0051223563588774
0.12691439158235
0.11747110684553
-8.5506479611344e-05
0.11747529261967
-0.00024963783282969
0.11748178814839
-0.00040902170976996
0.11749036738123
-0.00056508545702619
0.11750105241356
-0.00072065026494688
0.11751414229966
-0.00087892812145655
0.11753009785046
-0.0010416979248776
0.11754937356887
-0.001208699547233
0.11757231419494
-0.0013783071570198
0.11759913449922
-0.0015487915866879
0.11762998874747
-0.001719086056092
0.11766503726076
-0.0018891774542013
0.11770452542689
-0.0020596152581081
0.11774879182152
-0.0022315528577004
0.11779831092741
-0.0024057468626911
0.11785363429752
-0.002583492645482
0.11791544350208
-0.0027647351595636
0.11798443670066
-0.0029509021459149
0.1180614354298
-0.003140103261288
0.11814721191075
-0.0033346180462937
0.11824264247321
-0.0035287763062199
0.11834857791474
-0.0037286068730727
0.11846577696941
-0.0039211162499489
0.11859547965267
-0.0041239944541249
0.11873780417624
-0.0043076317098438
0.11889527695917
-0.0045183102641809
0.11906585998303
-0.0046848336014712
0.11925548991193
-0.0049194484224955
0.11945786207625
-0.0050510978611075
-0.0053542589922361
0.11968976472035
0.1108777676143
-8.6789144196688e-05
0.11088111381168
-0.00025298397067079
0.11088623590378
-0.00041414374009938
0.11089289791938
-0.00057174741208136
0.11090111636764
-0.00072886865533275
0.11091117570322
-0.00088898740220607
0.11092351978253
-0.0010540419523032
0.11093858951727
-0.0012237692326135
0.11095672659764
-0.0013964441901482
0.11097814382323
-0.0015702087666838
0.11100299531185
-0.0017439375004012
0.11103143394023
-0.0019176160392112
0.11106370117252
-0.0020918824478011
0.11110011984578
-0.0022679714889435
0.11114117007912
-0.0024467970546146
0.1111873806506
-0.0026297031761058
0.1112394653392
-0.0028168198080573
0.11129807566117
-0.0030095124286463
0.111364128298
-0.0032061558601414
0.11143828734989
-0.0034087770617288
0.11152167516309
-0.0036121640849398
0.11161487481066
-0.0038218064883565
0.11171919803353
-0.0040254394429782
0.11183529789465
-0.0042400942878175
0.11196432607475
-0.0044366598650331
0.11210811820935
-0.004662102376351
0.11226557741954
-0.0048422927915354
0.11244252375057
-0.0050963947349879
0.11262821121896
-0.0052367853115778
-0.0055810100048323
0.11285496225222
0.10465449270069
-8.7815805468099e-05
0.10465708766756
-0.00025557885740289
0.1046609567453
-0.00041801273628986
0.10466586634801
-0.00057665693476987
0.10467181456767
-0.00073481679772185
0.10467904967008
-0.00089622243034634
0.10468798986813
-0.0010629820788966
0.1046990687474
-0.001234848042807
0.1047126309087
-0.0014100062842933
0.10472891103803
-0.001586488830351
0.1047480690664
-0.0017630954642648
0.10477024399742
-0.0019397909066708
0.10479566013472
-0.0021172985223315
0.10482461487714
-0.002296926169362
0.10485757641655
-0.0024797585327739
0.10489503999087
-0.0026671666900798
0.10493772835057
-0.0028595081084498
0.10498622938172
-0.0030580134019406
0.10504154364973
-0.003261470072094
0.10510419214325
-0.0034714255016218
0.10517560757597
-0.0036835794669034
0.10525594147163
-0.0039021403366301
0.10534741297553
-0.0041169109028892
0.10544926798275
-0.0043419492545401
0.1055650980757
-0.0045524899209032
0.10569301534242
-0.0047900196096407
0.10583822357417
-0.0049875009932347
0.10600108859781
-0.0052592597313195
0.10618051482715
-0.0054162115151063
-0.0057902498251616
0.10638975467724
0.09878044981285
-8.8547262815282e-05
0.098782372447942
-0.00025750139865135
0.098785038220908
-0.00042067841483111
0.098788363860899
-0.00057998248200527
0.098792288082499
-0.0007387409290501
0.0987970125156
-0.00090094677571796
0.098802908135234
-0.0010688776130563
0.098810396546956
-0.0012423363708202
0.098819829941043
-0.0014194395960257
0.098831442544661
-0.0015981013525745
0.098845385848868
-0.0017770386878603
0.098861790427265
-0.0019561954050673
0.098880866365705
-0.0021363743814301
0.098902892755192
-0.0023189524801374
0.098928325158108
-0.0025051908578153
0.098957638880294
-0.0026964803353355
0.098991554000732
-0.0028934231533486
0.099030603426437
-0.0030970627539077
0.099075826128288
-0.0033066927028515
0.099127606671721
-0.0035232059773402
0.099187630966415
-0.0037436036981866
0.099255647108407
-0.0039701564199023
0.099334845635951
-0.0041961093766569
0.099422889145318
-0.0044299927148785
0.099526645981346
-0.0046562467127131
0.0996380553206
-0.0049014289096435
0.099772538133055
-0.005121983771228
0.099911323261955
-0.0053980448291898
0.10008575262978
-0.0055906408528424
0.10030563452392
-0.0060101316852153
0.39438499750121
0.0046638914230731
0.38988075122013
0.0045042463040086
0.38554093218412
0.0043398190587
0.38137020432348
0.0041707278834601
0.37737310566095
0.0039970986854758
0.37355405220399
0.0038190534802882
0.36991732932458
0.0036367229029856
0.36646708092581
0.0034502484227828
0.36320729745952
0.0032597834905873
0.36014180164092
0.003065495843356
0.35727423095588
0.0028675707100506
0.35460802005132
0.0026662109300185
0.35214638468469
0.0024616353923093
0.34989230892752
0.0022540757832754
0.34784853576496
0.0020437731888517
0.3460175621914
0.0018309736002395
0.34440163773518
0.0016159244830252
0.34300276660785
0.0013988711545035
0.34182271133292
0.0011800553021938
0.34086299795837
0.00095971340215661
0.34012491975645
0.00073807822958939
0.33960953921831
0.00051538056615995
0.33931767793079
0.00029186131559676
0.33924980943827
6.7868520965721e-05
0.33940668161346
-0.00015687214667313
0.33978837301686
-0.00038169137448707
0.34039483265879
-0.00060645961293956
0.34122584080844
-0.00083100812027247
0.342280971932
-0.0010551310941162
0.34355959253354
-0.0012786205717355
0.34506086082136
-0.0015012682580332