/*--------------------------------*- C++ -*----------------------------------*\
| =========                 |                                                 |
| \\      /  F ield         | OpenFOAM: The Open Source CFD Toolbox           |
|  \\    /   O peration     | Version:  2112                                  |
|   \\  /    A nd           | Website:  www.openfoam.com                      |
|    \\/     M anipulation  |                                                 |
\*---------------------------------------------------------------------------*/
FoamFile
{
    version     2.0;
    format      ascii;
    arch        "LSB;label=32;scalar=64";
    class       volScalarField;
    location    "15";
    object      p;
}
// * * * * * * * * * * * * * * * * * * * * * * * * * * * * * * * * * * * * * //

dimensions      [0 2 -2 0 0 0 0];

internalField   nonuniform List<scalar> 
22000
(
0.047377344355854
0.047355492314013
0.047310349008639
0.047240780144131
0.047146262034107
0.047026793462382
0.046882591229432
0.046713877089599
0.046520804292308
0.046303468575071
0.046061945632286
0.045796326326389
0.045506727977572
0.045193297042645
0.044856196769747
0.044495614107302
0.044111747046429
0.043704829529925
0.043275101905034
0.042822862104874
0.042348393621855
0.041852078152395
0.041334229293963
0.040795346451703
0.040235736752803
0.039656087852625
0.039056611590578
0.038438331481126
0.037801145315829
0.037146705803078
0.04778658954767
0.047763730429961
0.047717494157903
0.04764683795053
0.04755118404725
0.047430453833852
0.047284808829549
0.047114439923211
0.046919481911249
0.046700014189712
0.046456092222363
0.046187783717758
0.0458951797779
0.045578401972731
0.045237586778159
0.044872898556914
0.044484507510939
0.044072627088342
0.043637464654214
0.043179301734356
0.042698379468989
0.042195075541073
0.041669643661554
0.0411226072082
0.040554173679015
0.039965106580662
0.039355423199243
0.038726300646474
0.03807719059469
0.037409933385952
0.048534479418
0.048511134388235
0.048463983903936
0.048392074856228
0.048294879481442
0.048172311857171
0.04802449535761
0.047851577835631
0.047653654948961
0.047430770393231
0.047182942273683
0.04691019911955
0.046612587437472
0.046290183868955
0.045943073646336
0.045571374565435
0.045175200255263
0.044754720642696
0.044310079094796
0.043841523888049
0.043349218053851
0.04283353166261
0.042294609729132
0.041733024440666
0.041148804884967
0.040542879990545
0.039914926233752
0.039266493901333
0.038596244612775
0.037906566535506
0.049568036180313
0.049544301505046
0.049496360126471
0.049423258744353
0.049324473353716
0.049199908594832
0.049049658592334
0.048873828815263
0.048672465631384
0.048445560841318
0.048193076064154
0.047914980946568
0.047611255888907
0.047281911009099
0.04692695543285
0.046546436697945
0.046140383021023
0.045708896842146
0.045252024200722
0.044769959575402
0.044262747698652
0.043730740222754
0.043173919038242
0.042592916775792
0.041987497489376
0.041358809513533
0.040706022046094
0.04003117642172
0.039331760747609
0.038610868860742
0.050840261442102
0.050816201957877
0.050767589269026
0.050693456560194
0.050593266183227
0.050466899972199
0.050314413132432
0.050135859119247
0.049931222044947
0.049700425056879
0.04944335294577
0.049159894512086
0.04884993967484
0.048513407125531
0.048150201431736
0.047760272146925
0.047343528987433
0.046899978024429
0.046429529654076
0.045932297643598
0.045408162151929
0.04485743733608
0.044279880853433
0.043676185444641
0.043045757740186
0.04239000650706
0.041707434915898
0.041000693278318
0.040265773155341
0.039506674096479
0.052308901552519
0.052284644827366
0.052235613437188
0.052160830493391
0.052059740778802
0.051932192420371
0.051778186889457
0.051597709556031
0.051390664985692
0.051156888798899
0.050896167398187
0.050608285230784
0.050293015099891
0.049950156446648
0.04957947763716
0.049180798911423
0.04875387462533
0.048298580984722
0.047814649713914
0.047302080840253
0.046760538381809
0.046190271985
0.045590749004129
0.044962713192501
0.04430512047201
0.043619669557459
0.042904046127836
0.042161607130129
0.041386538949077
0.040583883061999
0.053935548047738
0.053911304710438
0.05386227430436
0.053787472503869
0.053686322931239
0.053558630438366
0.053404328680233
0.053223318513231
0.053015406852285
0.052780322193794
0.052517730403284
0.05222728729028
0.05190862078909
0.051561381598345
0.05118516816132
0.050779637251588
0.050344347847907
0.049879008544671
0.049383125130454
0.048856544897934
0.048298658958635
0.047709617352497
0.047088525941532
0.046436157929784
0.045750920737794
0.04503481368221
0.04428455228457
0.04350426168578
0.042686022085104
0.041835977380968
0.055684901012394
0.055660957856921
0.055612509584478
0.055538560361542
0.055438504516645
0.055312094434144
0.055159184647209
0.054979577776547
0.054772966806323
0.054538954430097
0.054277064204505
0.053986798952196
0.053667613645885
0.053318979966151
0.052940291663323
0.052531006076278
0.052090444695156
0.051618107338281
0.051113223165942
0.050575442012075
0.05000382072499
0.049398365501548
0.048757743919894
0.048082723814104
0.047371062204984
0.046625047031969
0.045840272740976
0.045021656999396
0.044158889358182
0.043259198151136
0.057524372659001
0.057501079646367
0.0574539210971
0.057381892157556
0.057284352979906
0.057160994013211
0.057011578974491
0.056835799060905
0.056633218092114
0.056403296112873
0.056145394901803
0.055858841989934
0.055542892916298
0.055196810914929
0.054819750706707
0.054410933754398
0.053969401366992
0.05349440135045
0.052984833765052
0.052440101678096
0.05185886309439
0.051240927915238
0.050584445117997
0.049890127492097
0.04915497756232
0.048381536921435
0.047564133405558
0.046708459355247
0.045801552507277
0.044851614502919
0.059423876965176
0.059401634551742
0.059356571900939
0.059287684125167
0.05919429668339
0.05907603090856
0.058932549745076
0.058763422349398
0.058568071337739
0.058345799137818
0.058095787341738
0.057817167922284
0.057508973960351
0.05717023421392
0.056799833127012
0.056396721646092
0.055959619738
0.055487479733037
0.05497882040625
0.054432745861737
0.053847449982314
0.053222486559206
0.05255540426378
0.051846797849218
0.051092812298173
0.050296181551479
0.049449830051045
0.048560159333
0.047611319957039
0.046612268657672
0.061355770341858
0.061335014052022
0.061292924390813
0.06122850951447
0.061141063747395
0.061030134762064
0.060895276735972
0.060735928270829
0.060551362013688
0.060340713233587
0.060102971487695
0.059837057277787
0.059541760730651
0.059215853362922
0.058857923058684
0.058466620158139
0.058040306623532
0.057577598167473
0.057076582954497
0.056536013259811
0.055953555345204
0.055328441888929
0.054657541588308
0.053941254143376
0.05317476811087
0.05236092288179
0.051491115608053
0.050572340008512
0.049585658283272
0.048540445707096
0.063294913409876
0.063276097899216
0.063237898834594
0.063179352924499
0.063099729408013
0.062998500779106
0.062875107978874
0.062728854567528
0.062558859110566
0.062364084909158
0.062143322940539
0.061895273369951
0.061618471368822
0.06131141416629
0.06097237164254
0.060599668826177
0.060191279980346
0.059745448502369
0.059259788618614
0.058732650209875
0.058161113221944
0.057544021426405
0.056877488701426
0.056161631750678
0.055390592398334
0.054567200224981
0.053681219994235
0.052740066224473
0.051721551432108
0.050635010209774
0.0652187736656
0.065202356814085
0.065168973457281
0.065117706676295
0.065047809430866
0.064958680430935
0.064849646829569
0.064719877397738
0.06456833794372
0.064393820947933
0.064194919097316
0.063970110190081
0.063717670185354
0.063435814347871
0.063122483048225
0.06277565791568
0.062392903552095
0.061972062890422
0.061510241793949
0.061005343320826
0.060453810244106
0.059854030605163
0.059201297797172
0.058495347206643
0.057729197916514
0.056905528136404
0.056012389698745
0.055057392091284
0.054014983186671
0.05289386930965
0.067107523124891
0.067093949597381
0.067066282532888
0.067023670621098
0.066965361235187
0.066890683944701
0.066798855802243
0.066688916139246
0.066559685273373
0.066409792640982
0.066237640208524
0.06604148930317
0.065819361112119
0.065569190220031
0.065288586618282
0.064975182324777
0.064626121001589
0.064238825065881
0.063809869421208
0.063336673279373
0.062815005400512
0.062242733430333
0.061614279580849
0.060928893896391
0.060178414242615
0.059365203168806
0.058475547129293
0.057516971082417
0.05646050151784
0.055313497625808
0.068944102301918
0.068933789317438
0.068912684886429
0.068880023935241
0.068835060963695
0.06877706370606
0.068705146867202
0.068618231030686
0.068515004235159
0.068393947462985
0.068253286909889
0.068091081785489
0.067905112065354
0.067693043002703
0.067452164287925
0.067179763012965
0.066872565837286
0.066527565688345
0.066140798658533
0.065709170896692
0.065227758245819
0.06469384921154
0.064100962835624
0.063447758958613
0.062724858645972
0.061934126842384
0.061060070912217
0.060109795271073
0.059050914568227
0.057888595642916
0.070714233004551
0.070707557155058
0.070693782110369
0.070672250227461
0.070642236889398
0.07060295785891
0.070553436971377
0.070492491532733
0.070418696214537
0.070330404594252
0.070225689361685
0.070102430247323
0.069958188833598
0.069790382622991
0.069596002381428
0.069372007032283
0.069114723426056
0.06882072052103
0.068485505592037
0.068105453882985
0.067674949197295
0.067190649265998
0.066645163620308
0.066036456253074
0.065353926860656
0.064598749031521
0.063753680105235
0.062825030631362
0.061777080014815
0.060611831338173
0.072406372476093
0.072403659861561
0.072397880120048
0.072388505633461
0.072374847624163
0.072356080995283
0.072331153360304
0.07229879865287
0.072257502085592
0.072205516316783
0.07214078930061
0.072061051373968
0.071963677617336
0.071845869045402
0.071704350453047
0.07153578097951
0.071336119144044
0.071101528752844
0.070827016128592
0.070508424778027
0.070139467943413
0.069716134925447
0.069230144139611
0.068678665500326
0.06804989998461
0.067344132001847
0.066542443482446
0.065649955725055
0.064627788542636
0.063473685209002
0.074011608151763
0.074013127011411
0.074015894405391
0.074019535159584
0.074023410154834
0.074026665834989
0.074028191198192
0.074026660389285
0.074020497573607
0.074007885748298
0.073986682556365
0.073954504894386
0.07390858086633
0.073845934573626
0.073763068956386
0.073656382848204
0.07352151201091
0.073354247580632
0.073149138909635
0.07290151452167
0.072604457937114
0.072253276990789
0.071838836922202
0.07135744288625
0.070796145636312
0.070154135554075
0.069410938019251
0.068570048575415
0.067589737132635
0.066462348491454
0.075523494477254
0.075529452786064
0.075541197007351
0.075558524607644
0.075580861690353
0.075607340183724
0.075636809528483
0.075667909665207
0.075699034824787
0.075728333012179
0.075753611358001
0.075772414419442
0.075781868929186
0.075778867883846
0.075759745655131
0.075720690724112
0.075657073744303
0.075564360992493
0.075436701530059
0.075268947499322
0.075053603144727
0.074785312401808
0.074454137673044
0.074055490064307
0.073575354413096
0.07301166312177
0.072342516951888
0.071569296731035
0.070647761288965
0.069563728373633
0.07693785130619
0.076948395415079
0.076969421403561
0.077000919078786
0.077042392463456
0.077092972793013
0.077151490819516
0.077216579426097
0.07728663689757
0.077359813719396
0.077433909782171
0.077506440588393
0.077574481579344
0.077634845453978
0.077683759313686
0.077717259657499
0.07773052025901
0.077718744672886
0.077675750509631
0.077595975675985
0.077471403324584
0.07729606462996
0.077059255075319
0.076755520757699
0.076369832347761
0.07589888888109
0.075319479714338
0.074630591281025
0.073785433764546
0.072762072032242
0.078252516173955
0.078267742532914
0.078298246900673
0.078344219965999
0.078405254324418
0.078480499557379
0.078568790897115
0.078668774308755
0.078778883584736
0.078897317745
0.079021921486578
0.079150223388503
0.079279298854958
0.079405932539496
0.079526313168598
0.079636385265394
0.079731206876016
0.079805786359462
0.079853701403083
0.079869050115482
0.079843379889689
0.079770194264005
0.079638042146757
0.079440711708849
0.079161993743386
0.078797687459475
0.078323007696817
0.077735589527709
0.076985065700134
0.076041101381827
0.079467068575837
0.079487025683863
0.079527113016292
0.079587715494932
0.079668514486045
0.079768696891993
0.07988714267536
0.080022533145381
0.080173345995596
0.080337864223229
0.08051403382578
0.080699441071224
0.080891222652647
0.081086192166839
0.081280580802924
0.081470291653789
0.081650366330979
0.081815663820079
0.081959656738978
0.082076141307076
0.082156402910003
0.0821934658068
0.082175279281747
0.082095005250489
0.081934977568322
0.081690528315657
0.081333794504514
0.08086396422068
0.080224561042016
0.079383136525905
0.080582583166367
0.080607219400535
0.080656859531058
0.080732093187185
0.080832687224866
0.080957833113064
0.081106467554409
0.081277396438204
0.081469205690862
0.081680267112893
0.081908614464264
0.0821519053011
0.082407406820257
0.082672021528143
0.082942116791748
0.083213597344814
0.083481621852121
0.083740904851285
0.083985018351132
0.084207360902425
0.084399312592077
0.084553159867271
0.084656890974211
0.084702626116805
0.084672081541807
0.08455964224769
0.084333078515967
0.083993667808746
0.083471914545974
0.082756488176234
0.081601556541043
0.081630585065022
0.081689405306442
0.081778945979328
0.081899107685799
0.082049023923897
0.082227505410695
0.082433485367338
0.082665973649677
0.082923576403362
0.083204302349812
0.08350582447917
0.083825594814108
0.08416063658421
0.084507494739962
0.084862078842815
0.085219779419938
0.085575144747306
0.085922111789311
0.086253477676465
0.086561290785919
0.086836325440594
0.087068025098067
0.08724538074907
0.087353271996907
0.087380624974359
0.087299160664705
0.087099832059553
0.086699870307332
0.08609181708377
0.082528257715909
0.082561120598874
0.082628136630801
0.08273094172942
0.082869630002144
0.08304336871072
0.083250681287043
0.083490033114056
0.083761283191187
0.084063619857667
0.084395044025413
0.084753257848421
0.085135978524272
0.085540454438777
0.085963475047543
0.086401003747887
0.086848667973359
0.087300843438268
0.087751928362595
0.088194135462579
0.088620643283584
0.089020314407893
0.089385434383668
0.089699439650215
0.089955325426783
0.090127449733868
0.090212401139608
0.090164103179914
0.089951894624486
0.089390348728964
0.036515790399056
0.035911744044872
0.03529404079723
0.034663807031585
0.034022107252021
0.033369761428432
0.032707400595709
0.032035604245795
0.031354996677766
0.030666271748127
0.029970175719636
0.029267484664228
0.028558991988884
0.027845504206253
0.027127839949778
0.02640682991002
0.025683316792395
0.024958154144684
0.024232203812318
0.023506332955904
0.02278141254462
0.022058318235612
0.021337935704323
0.020621168871245
0.019908936726331
0.019201987650428
0.018500930800819
0.017806549412732
0.017119689582697
0.01644116459146
0.015771722934418
0.015112055805471
0.014462810224372
0.013824598810332
0.013197998480212
0.012583551502672
0.01198175657749
0.011393074977518
0.010817915907206
0.010256655609478
0.0097096058601565
0.0091770598177394
0.0086592210177777
0.0081563102768626
0.0076684023404101
0.0071956708065073
0.0067380105446899
0.0062955864532472
0.0058679624179335
0.005455232235804
0.036769282097375
0.036158107376906
0.03553137657471
0.034891642121204
0.03424060570162
0.033579031588821
0.032907212672943
0.032225442613626
0.03153421677369
0.03083420882288
0.030126178919911
0.029410912989788
0.028689206686754
0.027961869396418
0.0272297301583
0.026493641469371
0.025754480672677
0.025013147705163
0.024270559969807
0.023527646683256
0.02278534313057
0.022044582496913
0.021306280107379
0.020571309888074
0.019840490446126
0.019114808785637
0.018395395806912
0.017683149501839
0.016978861978306
0.01628331066041
0.015597275102551
0.014921522937995
0.014256790104706
0.013603774568437
0.012963126873727
0.0123354570437
0.011721320427672
0.0111212358391
0.010535654125973
0.0099650028440837
0.0094096158727123
0.0088698389938823
0.0083458689653359
0.0078379986447243
0.0073462489426105
0.0068709343410646
0.0064118261079223
0.0059694635798488
0.0055433116283427
0.0051348688550756
0.037245696414488
0.036613885723118
0.035962273116611
0.03529663850615
0.034620245208704
0.033933915288673
0.033237381533689
0.032530472108501
0.031813527291797
0.031087272196708
0.030352569298394
0.029610279899959
0.028861242036651
0.02810629245405
0.027346287318033
0.026582113482216
0.025814691968845
0.025044973233308
0.024273927578756
0.023502536800356
0.022731789743168
0.021962680492638
0.021196209401179
0.020433389944458
0.019675260320617
0.018922828947398
0.018177035077509
0.017438819044007
0.01670909603786
0.015988753181597
0.015278649387157
0.014579615046316
0.013892440662153
0.013217877748849
0.012556623906439
0.011909337270858
0.011276609391411
0.010659003229774
0.010056991811874
0.0094710488931117
0.008901508452541
0.0083487779604761
0.0078130140534229
0.0072946191255812
0.0067934941186217
0.0063101953920979
0.0058442288267863
0.0053967899857797
0.0049670206152841
0.0045588941634646
0.037920058441567
0.037255125104562
0.03656437543421
0.035858737176293
0.035143808635562
0.034420388913132
0.033687293402156
0.032943630538631
0.032189512917874
0.03142574532098
0.030653332274368
0.0298732239366
0.029086290717138
0.028293377005774
0.027495345665589
0.026693100381738
0.025887592204921
0.025079812076809
0.024270776581335
0.023461517445876
0.022653078347301
0.02184651404311
0.021042886688491
0.020243258020121
0.019448677131147
0.018660181474634
0.017878806664115
0.0171055650902
0.016341444105494
0.015587404263343
0.014844371558693
0.014113238903299
0.01339485431783
0.012690029156989
0.011999515858261
0.011324034143706
0.010664224585135
0.01002071456846
0.0093940131592579
0.0087846682489936
0.0081930240846572
0.0076195902540231
0.007064479730177
0.0065282707887424
0.0060107070454487
0.005512721410958
0.005033461584076
0.0045751602026762
0.0041366182009309
0.00372587581867
0.038778237058789
0.038069561221745
0.037327138875469
0.036569043051491
0.03580396621531
0.035032548241983
0.034252290657514
0.033461320870719
0.032659463601773
0.031847646945772
0.031027068212025
0.030198787263754
0.029363703618891
0.0285226580335
0.027676510778714
0.026826177605466
0.025972638401778
0.025116924976874
0.02426009973704
0.023403241131545
0.022547440482909
0.021693801950806
0.020843438993219
0.019997468672862
0.019157006486771
0.018323162683543
0.017497037873467
0.016679715935907
0.015872255882873
0.015075690555772
0.014291017273085
0.013519201684801
0.012761161414096
0.012017781369502
0.011289881150187
0.01057825658498
0.0098836088012649
0.0092066466939117
0.0085479250307106
0.0079080878557755
0.0072874939461003
0.0066867880380398
0.0061060306960195
0.0055460353415422
0.0050063517317436
0.0044884166633462
0.0039909341591401
0.0035175074527416
0.0030665313998099
0.0026513919513394
0.039811702465482
0.039049733246941
0.038243893787898
0.037421619075772
0.036595508312669
0.035765872551425
0.034928469676222
0.034080182174485
0.03322050384966
0.032350548820393
0.0314717701002
0.030585363280825
0.029692256063952
0.028793277024763
0.027889277917996
0.026981185117471
0.026070008873328
0.025156824078293
0.024242740493003
0.023328884172937
0.022416395472915
0.021506431746649
0.020600165111829
0.019698776824078
0.018803450809128
0.017915365804652
0.017035691257222
0.016165583064647
0.015306174524216
0.014458575778703
0.013623861351296
0.012803077174106
0.011997218650847
0.011207253735948
0.010434077516399
0.009678572959976
0.0089415099984832
0.0082236927150613
0.0075257288191488
0.0068483774667479
0.0061920150984579
0.0055574511466555
0.0049446839788021
0.0043548169831841
0.0037871614126799
0.0032437811638507
0.0027228190103055
0.0022296081381264
0.0017620270553488
0.0013403326527863
0.041015306459736
0.040191248826788
0.039310749630892
0.038413103467851
0.037515677344991
0.036618219795973
0.035714256124023
0.034799144561961
0.033872017920206
0.032934255093732
0.031987635024999
0.031033514973603
0.0300728468881
0.029106435957252
0.028135118912488
0.027159832190235
0.026181619047667
0.025201600942797
0.024220937863663
0.02324080563387
0.022262395919281
0.021286922027973
0.020315617266497
0.019349728326303
0.018390507490632
0.017439205160056
0.01649706649854
0.015565326128211
0.01464519787054
0.013737875956533
0.01284451988232
0.011966265121209
0.011104194176904
0.010259369470017
0.0094327722931707
0.0086253863523296
0.007838061338536
0.007071714082201
0.0063270152306393
0.0056048625134556
0.0049056549374922
0.0042304011524877
0.0035790285562073
0.002952989572022
0.0023513156890737
0.0017768254366458
0.0012269989043313
0.00070927357531146
0.00022096118013143
-0.00020916784701897
0.042386691808221
0.041492402613859
0.0405263632449
0.039542556946642
0.038564032446898
0.037589660275231
0.036610172329368
0.035619106593961
0.034615220912285
0.033600256293261
0.032576396145902
0.031545184656757
0.030507591052324
0.029464384987187
0.02841638280527
0.027364532663754
0.026309915847475
0.025253705443677
0.024197115573782
0.023141374879686
0.02208772920456
0.021037450985881
0.019991838412755
0.018952208043958
0.017919886185775
0.016896201495421
0.015882481577298
0.014880047311036
0.013890201306941
0.012914231178152
0.011953390848995
0.011008916030492
0.010081987608453
0.0091737753625515
0.0082853592483007
0.0074178396614413
0.0065721597829525
0.005749368296162
0.0049502116509895
0.0041757506154339
0.0034264152435918
0.0027034483908636
0.0020067020309485
0.0013380379071015
0.00069617220770808
8.4808556737987e-05
-0.00049932846106016
-0.001046311409965
-0.0015594215808049
-0.0019996406875233
0.043925372479503
0.042953278135578
0.041891077661406
0.040810640766463
0.039741656481893
0.038681702849188
0.037618081601243
0.036542205108152
0.035452467122437
0.034351089639696
0.033240745094726
0.032123187098491
0.030999391492791
0.029870078785481
0.028736041089328
0.027598242867091
0.026457810942569
0.02531597696404
0.024174014353023
0.023033208547526
0.021894863635816
0.020760315998832
0.019630934286412
0.018508111199179
0.017393253984713
0.016287776512883
0.015193096233178
0.01411062888399
0.013041775076608
0.01198792571427
0.010950440108073
0.0099306664312522
0.0089298965124329
0.0079494222990668
0.0069904374161175
0.006054176405851
0.0051416920350745
0.0042541862225884
0.0033924974990975
0.0025578765339639
0.0017507974098755
0.00097277487735068
0.00022358750752225
-0.00049443117083648
-0.0011829076401635
-0.0018371227091549
-0.002461191379945
-0.0030423114673344
-0.003584345941862
-0.0040361843010427
0.045631882248897
0.044574930507148
0.04340616562546
0.042218936198456
0.041050554739489
0.039896766886671
0.038740724080809
0.037571407482423
0.036386893797401
0.035190032228697
0.033984075063931
0.03277100169142
0.031551777741505
0.030327060244818
0.029097615759089
0.027864432626935
0.026628692987233
0.025391694942534
0.024154776883376
0.022919285994508
0.021686589932201
0.020458095099816
0.019235247339304
0.018019522670931
0.016812416884584
0.015615437164143
0.014430099582267
0.013257924034181
0.012100419458245
0.010959091723365
0.0098354179297875
0.0087308725171516
0.0076468734968367
0.0065848515182595
0.0055461312905581
0.0045321015943666
0.0035439452196692
0.0025830410234411
0.0016503417776396
0.00074731697889627
-0.00012549406512463
-0.00096626670010816
-0.0017752833091976
-0.0025496785504165
-0.00329143455003
-0.0039946895671172
-0.0046644561009767
-0.0052846654970546
-0.0058596875049005
-0.006324380326659
0.047507065416188
0.046358722839116
0.045073228307465
0.043769399912813
0.042493149528019
0.041237708079679
0.039981280766701
0.038710124096665
0.03742208574622
0.036120813494568
0.034810232780604
0.03349255810643
0.032168722272399
0.030839303265957
0.029505044154986
0.028166969654136
0.026826330209427
0.025484499718409
0.024142887810648
0.022802908824143
0.021466000211799
0.020133645764164
0.018807376479939
0.017488759907082
0.016179388789142
0.014880871976151
0.013594833719027
0.012322909282486
0.011066728100141
0.0098279237268272
0.0086081052737352
0.0074088888620156
0.0062318357286761
0.0050785340015422
0.0039504608331361
0.0028491812451464
0.0017760334523468
0.00073259948068808
-0.00028002344376126
-0.0012601159891167
-0.0022070399160696
-0.0031186220403432
-0.0039951740763928
-0.0048332432124109
-0.0056351551632503
-0.0063937969494521
-0.0071151088609149
-0.007779399889793
-0.0083913882150262
-0.0088698994254545
0.049551411512861
0.04830570294885
0.046893647077828
0.045463899098291
0.044071879886493
0.042707448336536
0.04134300770844
0.039961844619748
0.038561725708469
0.03714728980368
0.035723220943705
0.034291965569141
0.032854395701238
0.031410996532446
0.029962493901767
0.028509965398004
0.027054745807884
0.025598295426366
0.024142101864089
0.02268765302151
0.021236463558541
0.019790102870873
0.018350196021684
0.016918412070387
0.015496451707066
0.014086034829504
0.012688902771133
0.011306816629027
0.0099415400518844
0.0085948501036831
0.0072685043607505
0.0059642772811523
0.0046838928371763
0.00342911672923
0.0022016035776109
0.00100311910277
-0.00016481077520087
-0.0013003732217595
-0.0024022855611604
-0.003468547532499
-0.0044983710371392
-0.0054891988411936
-0.006441312904046
-0.0073506223918956
-0.0082197383877044
-0.0090401868990171
-0.0098188048389289
-0.010531923570521
-0.011184431572309
-0.011677067214486
0.051764501556458
0.050416060079795
0.048868070607797
0.047303732725212
0.045788760091504
0.044308580830975
0.042828890378107
0.041329831195434
0.03980931528181
0.03827319011146
0.03672696703913
0.035173300634101
0.03361296889072
0.032046356483111
0.030474187070608
0.028897613696648
0.027318073399084
0.02573712359272
0.024156337057839
0.022577282915951
0.021001562534528
0.019430840809591
0.017866845316376
0.016311353725786
0.014766186140267
0.013233187512266
0.011714230063093
0.010211211964925
0.0087260422520731
0.0072606560965986
0.0058169783408067
0.0043969621258407
0.0030025164257177
0.0016356068401504
0.00029809443523878
-0.0010080283078605
-0.0022810080748284
-0.003518772060344
-0.004719797326147
-0.0058817730105016
-0.0070036862531131
-0.008082567830878
-0.0091185740277511
-0.010106950321348
-0.011050488098857
-0.011939298623381
-0.012781014792631
-0.0135476608083
-0.014243942349188
-0.014750356801262
0.054144514370902
0.052688666301712
0.050996023103799
0.049289292580315
0.047645053750734
0.046043033379849
0.044441305127118
0.042816797902881
0.041167878173953
0.039501837604259
0.037825063518336
0.036140371745628
0.034448404847988
0.032749446361094
0.031044244002352
0.029334055609995
0.027620440512948
0.025905063645825
0.024189589708241
0.022475677216643
0.020765026025291
0.019059410979785
0.017360678585383
0.015670726655661
0.013991492690914
0.012324941935022
0.010673100492095
0.0090380349066091
0.0074218179539575
0.0058265529943956
0.0042543438703714
0.0027073428718769
0.0011876696907302
-0.00030248242447485
-0.0017610140548245
-0.0031856758703297
-0.0045744419611854
-0.0059249477676857
-0.0072353620009941
-0.0085030351143479
-0.0097266266880664
-0.01090273783726
-0.012031250445554
-0.013106743148586
-0.014131990316556
-0.01509569868221
-0.016006053522762
-0.016830727346498
-0.017573676571831
-0.018093487328351
0.056687846298658
0.055120685735946
0.053275536619759
0.051419736481099
0.049640981695126
0.047911792065297
0.046181748676575
0.044424653969895
0.042639730472093
0.040835947514455
0.039020578059297
0.037196528405364
0.035364266586052
0.033523988575566
0.031676505144372
0.029823214436994
0.027965818491059
0.026106099803587
0.024245822775273
0.02238674460757
0.020530671184331
0.018679496845904
0.016835198730222
0.014999835686586
0.013175505659228
0.011364242747518
0.0095682086807353
0.0077896751965387
0.0060309207708722
0.0042942443312583
0.0025819410213119
0.00089637939675932
-0.00076008983705427
-0.0023850115695459
-0.0039760158755782
-0.0055305556698621
-0.0070462881716889
-0.0085205134929024
-0.0099510197600613
-0.011334783716307
-0.012670012708725
-0.013952870305629
-0.015182755869797
-0.01635361807972
-0.017467905171036
-0.018512997655796
-0.019497243535196
-0.020383919152132
-0.021175500700347
-0.021706856079371
0.059388834442815
0.05770731741068
0.055702916295446
0.05369275880858
0.051775494102059
0.049914683045413
0.048050628203394
0.046154292199087
0.044226265100878
0.042277416284056
0.040315857596769
0.038344482208129
0.036363550411921
0.034373208228609
0.032374385905717
0.030368660868667
0.028357895907347
0.026343999913683
0.024328847659489
0.022314310256061
0.020302318438886
0.018294895633633
0.016294138070036
0.014302254810792
0.012321522681831
0.010354179587229
0.0084025043456246
0.0064689167723186
0.0045558962918926
0.0026659802109775
0.00080169283660604
-0.0010343486073806
-0.0028395452798467
-0.0046111404161995
-0.0063464685244492
-0.0080426226333067
-0.0096969111919163
-0.011306221011402
-0.012867908228892
-0.014378497806234
-0.015835636098648
-0.017235011385983
-0.018575312066307
-0.019849909965604
-0.021060511375547
-0.02219333299586
-0.023256227882771
-0.024208230929055
-0.025049187216692
-0.025588862596737
0.062239571264261
0.060441630764049
0.0582726180183
0.05610446853971
0.054046101224772
0.052050163999585
0.050047061006758
0.04800542408092
0.045927809683775
0.043827178230561
0.041712374712935
0.039586150284678
0.037448538840876
0.035299700446297
0.033140756823436
0.030973506046283
0.028799985251403
0.026622236493873
0.024442254127734
0.02226204131507
0.020083672085379
0.017909324000697
0.015741277713898
0.013581819116358
0.011433254933291
0.0092982228089099
0.0071792625980733
0.0050788910305284
0.0029997241135511
0.00094453739454683
-0.0010838821476027
-0.0030826209406414
-0.005048804250706
-0.006979325255751
-0.008871204638936
-0.010721090505696
-0.012525931939186
-0.014282066002758
-0.015986419912479
-0.017634879798371
-0.019224511384191
-0.020750343790784
-0.022210207405005
-0.023596846553672
-0.024910800250832
-0.026137335791429
-0.027282993658086
-0.028303001408514
-0.029193010502673
-0.029736796438561
0.065229780937554
0.063314458344086
0.060977176054733
0.058649359093379
0.056448848793177