/*--------------------------------*- C++ -*----------------------------------*\
| =========                 |                                                 |
| \\      /  F ield         | OpenFOAM: The Open Source CFD Toolbox           |
|  \\    /   O peration     | Version:  2112                                  |
|   \\  /    A nd           | Website:  www.openfoam.com                      |
|    \\/     M anipulation  |                                                 |
\*---------------------------------------------------------------------------*/
FoamFile
{
    version     2.0;
    format      ascii;
    arch        "LSB;label=32;scalar=64";
    class       surfaceScalarField;
    location    "15";
    object      phi;
}
// * * * * * * * * * * * * * * * * * * * * * * * * * * * * * * * * * * * * * //

dimensions      [0 3 -1 0 0 0 0];

oriented        oriented;

internalField   nonuniform List<scalar> 
43645
(
0.39512380756982
-4.9345388494326e-06
0.3951386614313
-1.485390092114e-05
0.395163376683
-2.4715294348367e-05
0.39519793047258
-3.4553833651214e-05
0.3952422944473
-4.4364018977146e-05
0.39529643382356
-5.4139420088642e-05
0.3953603096623
-6.387588173643e-05
0.3954338796673
-7.3570047041815e-05
0.39551709405141
-8.3214425077883e-05
0.39560989946833
-9.2805456837411e-05
0.39571224008451
-0.0001023406549805
0.39582406830075
-0.00011182825399912
0.39594533309931
-0.00012126483523316
0.39607598588404
-0.00013065282040436
0.39621594591471
-0.00013996006534357
0.39636512500641
-0.00014917912548044
0.39652337192488
-0.00015824695138834
0.39669055477191
-0.00016718287921305
0.39686644733257
-0.0001758925921411
0.3970509206123
-0.00018447331067884
0.39724366901924
-0.00019274843737732
0.39744463741338
-0.00020096842424402
0.39765337348147
-0.00020873609789877
0.39787000589881
-0.00021663244702521
0.39809374698747
-0.00022374111823158
0.39832515631744
-0.00023140935961842
0.39856269209718
-0.00023753580945344
0.39880794299999
-0.00024525093236312
0.39905767992729
-0.00024973695645687
-0.00025818940395592
0.39931586930143
0.37294712817873
-9.5080371795291e-06
0.37296096946746
-2.869525508274e-05
0.37298420437775
-4.795027127591e-05
0.3730168032406
-6.7152763065784e-05
0.3730587371734
-8.6298017491036e-05
0.37310998042637
-0.00010538273760146
0.37317050763013
-0.00012440314866951
0.37324029116329
-0.00014335364198398
0.37331929598974
-0.0001622193118312
0.37340748362732
-0.00018099315328675
0.37350481313636
-0.00019967022140283
0.37361125135437
-0.00021826652798395
0.37372676107594
-0.00023677461133412
0.37385130718595
-0.0002551989836295
0.37398482321269
-0.00027347614397778
0.37412723672602
-0.00029159268955054
0.37427841480004
-0.00030942507502953
0.37443824555966
-0.00032701368752454
0.37460652525761
-0.00034417233789793
0.3747831468803
-0.00036109498053575
0.37496782910728
-0.00037743071088933
0.37516053724662
-0.00039367660974693
0.3753608450838
-0.00040904398089099
0.37556889788175
-0.00042468529067878
0.37578394133193
-0.00043878461400552
0.37600654413759
-0.00045401221101148
0.3762352196697
-0.00046621138740247
0.3764715477762
-0.00048157908439439
0.37671241156498
-0.00049060078947635
-0.00050752899770908
0.37696175111301
0.35201533444907
-1.3945025181553e-05
0.35202873494684
-4.2095820564354e-05
0.35205110577543
-7.0321167837856e-05
0.35208243244122
-9.8479496079434e-05
0.35212270088435
-0.00012656652648539
0.35217189907177
-0.00015458098938339
0.35223001705895
-0.00018252119852388
0.35229704512215
-0.00021038176621563
0.35237296815516
-0.00023814240412021
0.35245776922843
-0.0002657942841806
0.35255142893648
-0.00029332998534059
0.35265393489688
-0.00032077254265332
0.35276526849917
-0.00034810826624553
0.3528854132605
-0.00037534379610638
0.3530143210778
-0.00040238401094332
0.35315194260457
-0.00042921426476021
0.35329816888678
-0.00045565140446401
0.35345291984248
-0.0004817646895245
0.3536160192357
-0.00050727177650615
0.35378739795217
-0.00053247374182196
0.35396679692991
-0.00055682973288044
0.35415422414199
-0.00058110386585337
0.35434926084619
-0.00060408072889869
0.35455210776756
-0.00062753225595146
0.35476198972701
-0.00064866661743985
0.35497956365935
-0.00067158618774942
0.35520326027411
-0.00068990804690407
0.3554348186585
-0.00071313751352359
0.35567089759073
-0.0007266797652828
-0.00075235804881135
0.35591572659632
0.33225831846522
-1.8219587943655e-05
0.33227124512896
-5.5022545361942e-05
0.33229279790817
-9.1874008383834e-05
0.33232295556032
-0.00012863720895805
0.33236171152024
-0.00016532254595659
0.33240907026762
-0.00020193979501362
0.33246504279561
-0.00023849378326627
0.33252964262045
-0.00027498164637602
0.33260287958866
-0.00031137942607564
0.33268476375544
-0.00034767850323621
0.33277530296926
-0.00038386924985502
0.33287451154496
-0.00041998116759675
0.33298239473934
-0.00045599150836206
0.33309896007149
-0.00049190917466773
0.33322418264072
-0.00052760662522698
0.33335804261725
-0.00056307428525492
0.3335004610099
-0.00059806983994962
0.33365139866982
-0.00063270239146776
0.33381071345619
-0.00066658660406037
0.33397838573363
-0.00070014605992813
0.33415418275529
-0.00073262679468906
0.33433816937873
-0.00076509052924333
0.33452993179957
-0.00079584318944972
0.33472974712139
-0.00082734761756735
0.33493680470077
-0.00085572423666781
0.33515188923518
-0.00088667076233537
0.33537331310405
-0.00091133195621876
0.3356030628197
-0.0009428872695297
0.33583750108255
-0.00096111806734976
-0.00099623471478344
0.33608137770745
0.31361016570684
-2.2327966440164e-05
0.31362261153638
-6.7468429505034e-05
0.31364334498021
-0.00011260750681832
0.31367234296668
-0.00015763524929301
0.3137096077146
-0.00020258734651006
0.31375516186024
-0.00024749399194163
0.31380904061852
-0.00029237259131991
0.31387128518622
-0.00033722626239373
0.31394193526246
-0.0003820295490497
0.31402103312245
-0.00042677640848275
0.31410861923065
-0.00047145540172991
0.3142047402172
-0.00051610219640982
0.3143094306633
-0.00056068199523965
0.31442272795466
-0.00060520650554747
0.31454463610656
-0.00064951481535126
0.31467517177918
-0.00069360999509317
0.31481429261135
-0.00073719070831661
0.31496200935517
-0.00078041917077888
0.31511822117806
-0.00082279846172635
0.31528296899669
-0.00086489391296334
0.31545605236107
-0.00090571019309892
0.31563760680261
-0.00094664500476517
0.31582722566854
-0.00098546208929245
0.31602528198279
-0.0010254039659953
0.31623092378242
-0.0010613660706808
0.31644509543751
-0.0011008424523453
0.31666596633405
-0.0011322028881211
0.31689582570408
-0.0011727466750757
0.31713066838258
-0.0011959607805505
-0.0012414282082817
0.31737586183933
0.29600863252429
-2.6258678261187e-05
0.29602056574244
-7.9401697772926e-05
0.29604042509362
-0.00013246690806018
0.29606818782739
-0.00018539803243529
0.29610386758404
-0.00023826715142045
0.29614750802285
-0.00029113447784761
0.29619917185268
-0.00034403646691384
0.2962589317559
-0.00039698621011461
0.29632686154654
-0.00044995938277442
0.29640304042372
-0.00050295532745091
0.29648754635841
-0.00055596137679023
0.29658046337791
-0.00060901925503166
0.29668186036589
-0.00066207902097617
0.29679180993351
-0.00071515610980504
0.29691035047837
-0.00076805539564346
0.29703754180416
-0.00082080135539864
0.29717338499383
-0.00087303393152809
0.29731794943955
-0.00092498364939103
0.29747118348594
-0.00097603254030031
0.29763319925899
-0.001026909717815
0.2978038360462
-0.0010763470116809
0.2979833126312
-0.0011261216210414
0.29817123456783
-0.0011733840570289
0.29836808665085
-0.0012222560802761
0.29857297517243
-0.0012662546235879
0.29878702664917
-0.0013148939607743
0.29900825506023
-0.0013534313311108
0.29923928866852
-0.0014037803153089
0.29947571808531
-0.0014323902283875
-0.0014893017121176
0.29972359155617
0.27939496592068
-2.9990120536941e-05
0.27940632350713
-9.0759327956987e-05
0.27942520528076
-0.00015134872525614
0.27945158982082
-0.00021178261536937
0.27948550369364
-0.0002721810660709
0.27952701371555
-0.00033264454049696
0.27957621268369
-0.00039323547455462
0.27963320772855
-0.00045398129331375
0.27969811006845
-0.00051486175970649
0.27977103947997
-0.00057588477481194
0.27985211532611
-0.00063703725745478
0.27994146316177
-0.00069836712408577
0.28003919040388
-0.00075980629523796
0.28014540957322
-0.00082137531028053
0.28026019851106
-0.00088284436353962
0.28038366628515
-0.00094426915874317
0.2805158640568
-0.0010052317315584
0.28065692796474
-0.0010660475851544
0.28080686356188
-0.0011259681646604
0.28096586401046
-0.0011859101933209
0.28113381682695
-0.0012442998547606
0.28131103531226
-0.0013033401329207
0.28149714518608
-0.001359493957326
0.28169275621838
-0.0014178671392787
0.28189693932368
-0.0014704377557171
0.28211101958474
-0.0015289742490849
0.28233285868036
-0.0015752704542931
0.2825654459038
-0.0016363675664016
0.28280396453442
-0.0016709088859793
-0.0017405139044978
0.28305517669788
0.26371371412025
-3.3494828024532e-05
0.26372440866174
-0.00010145390856963
0.26374217536037
-0.00016911546282329
0.26376699341306
-0.00023660070643431
0.26379890274369
-0.00030409043419665
0.26383799433204
-0.00037173616548431
0.26388439237666
-0.00043963355477436
0.26393824005738
-0.00050782900870673
0.26399968799212
-0.00057630972801346
0.26406889892117
-0.00064509573646843
0.26414603634843
-0.00071417471618754
0.26423127041525
-0.00078360122143735
0.26432475040837
-0.00085328631780605
0.2644266325468
-0.00092325747730097
0.2645370384964
-0.00099325034076751
0.26465613182615
-0.0010633625154033
0.26478401988236
-0.0011331198138792
0.26492091263591
-0.0012029403642948
0.26506688074135
-0.0012719362950834
0.26522220703883
-0.001341236515476
0.26538683665336
-0.0014089294935724
0.26556118710974
-0.0014776906134665
0.26574491519605
-0.0015432220675951
0.26593876585843
-0.0016117178256989
0.26614178786631
-0.0016734597875819
0.26635551432482
-0.0017427007318002
0.26657767225375
-0.0017974284075043
0.26681161672566
-0.0018703120625178
0.26705215100699
-0.001911443190756
-0.001995105137767
0.26730674221514
0.24891254050404
-3.67426740566e-05
0.24892247578706
-0.00011138922516794
0.24893897384413
-0.00018561355329324
0.24896201343467
-0.00025964032988064
0.24899164783913
-0.00033372487082285
0.24902799273428
-0.00040808109208199
0.24907120454621
-0.00048284539728511
0.24912146333145
-0.00055808782375334
0.24917895977002
-0.00063380619546748
0.24924390035916
-0.0007100363537033
0.24931649391787
-0.00078676830203963
0.24939695669151
-0.00086406402143609
0.24948548191674
-0.00094181156848435
0.2495822720782
-0.001020047663501
0.24968749606893
-0.0010984743554057
0.24980137593019
-0.0011772424000101
0.24992408038341
-0.0012558242897459
0.25005589878907
-0.001334758792183
0.25019697420494
-0.0014130117326628
0.25034768600809
-0.0014919483401011
0.250508046804
-0.0015692903106049
0.25067858572414
-0.0016482295546652
0.25085900423989
-0.0017236406042168
0.25105018871876
-0.001802902325526
0.25125118575416
-0.0018744568438847
0.25146373723969
-0.0019552522384424
0.25168546805008
-0.0020191592390426
0.25192008402039
-0.0021049280538966
0.25216206818721
-0.0021534273779909
-0.0022525766326245
0.25241953966008
0.2349420477132
-3.9702855272651e-05
0.23495112975685
-0.00012047129823817
0.23496620502856
-0.00020068885427557
0.23498725212489
-0.00028068745514032
0.23501433729678
-0.0003608100710538
0.23504760023936
-0.00044134406248207
0.23508722884042
-0.00052247402550443
0.23513343942375
-0.00060429843367788
0.23518646262753
-0.00068682942512482
0.23524654870342
-0.00077012245488431
0.2353139515983
-0.00085417122145529
0.23538893350581
-0.00093904595288703
0.23547173217024
-0.0010246102561039
0.23556259723339
-0.0011109127492924
0.23566174686794
-0.0011976240119012
0.23576946386278
-0.0012849594163273
0.23588598222623
-0.001372342674068
0.23601167425645
-0.0014604508429029
0.23614676165945
-0.0015480991556863
0.2362917248248
-0.0016369115252325
0.2364466536513
-0.0017242191565048
0.23661219315558
-0.0018137690782318
0.23678810533695
-0.001899552804614
0.2369754191298
-0.001990216137377
0.23717320558567
-0.0020722433185775
0.23738340659156
-0.0021654532632132
0.23760359278025
-0.0022393454464829
0.23783778524313
-0.0023391205352978
0.2380802402108
-0.0023958823634847
-0.002511966868033
0.23833963042706
0.22175561393476
-4.2347024000768e-05
0.22176375657057
-0.00012861395923902
0.22177726619213
-0.0002141985009353
0.22179612137269
-0.00029954266053442
0.22182040059117
-0.00038508931393389
0.22185026619785
-0.00047120969320246
0.2218859358821
-0.00055814373328682
0.22192766028805
-0.00064602286277816
0.22197570797108
-0.00073487713075999
0.22203037076636
-0.00082478527235659
0.22209194640351
-0.00091574688021953
0.222160741701
-0.0010078412715656
0.22223703793358
-0.0011009065092974
0.222321130945
-0.0011950057809216
0.22241328875919
-0.0012897818457484
0.22251385501354
-0.0013855256899828
0.22262313138176
-0.0014816190610946
0.22274157413124
-0.0015788936109188
0.22286948844569
-0.0016760134882552
0.22300745734978
-0.0017748804472582
0.22315565727539
-0.0018724190997038
0.22331484970636
-0.0019729615266943
0.22348487480918
-0.0020695779246752
0.22366689935412
-0.0021722406995153
0.22386005154153
-0.0022653955229948
0.22406645383929
-0.0023718555779774
0.22428368510619
-0.0024565767302154
0.22451602480939
-0.0025714602550612
0.224757629121
-0.0026374866909823
-0.0027719193937835
0.22501758162965
0.20930923611576
-4.4651210568886e-05
0.20931636604438
-0.00013574390978394
0.20932818806171
-0.0002260205401433
0.20934468050237
-0.00031603512292949
0.20936593282051
-0.00040634165351411
0.20939212783474
-0.00049740472865974
0.20942351030366
-0.0005895262230925
0.20946036200632
-0.00068287458610524
0.2095029862018
-0.00077750134652582
0.20955171273292
-0.00087351182351872
0.20960687973594
-0.00097091390286179
0.2096688350635
-0.0010697966184952
0.2097379016708
-0.0011699731355298
0.20981441885661
-0.0012715229853969
0.2098987035025
-0.0013740665098675
0.20999115758362
-0.0014779797890875
0.21009215138345
-0.0015826128784856
0.21020222280148
-0.0016889650463025
0.21032176398044
-0.0017955546841891
0.21045145857294
-0.0019045750565626
0.21059157775266
-0.0020125382958896
0.21074299614406
-0.0021243799344183
0.21090565046716
-0.0022322322638208
0.21108083444804
-0.0023474246963321
0.2112677715645
-0.0024523326551281
0.21146873446571
-0.0025728184947721
0.21168138635682
-0.0026692286366427
0.21191018664446
-0.0028002605576674
0.21214934937654
-0.0028766494373364
-0.0030307511198622
0.2124081810873
0.19756138253698
-4.6597235539817e-05
0.19756744345065
-0.00014180484248862
0.19757748403168
-0.00023606114021568
0.19759148190984
-0.00033003302008631
0.19760953571822
-0.00042439548068723
0.19763184583435
-0.00051971486350325
0.19765868041286
-0.00061636082009434
0.19769034814124
-0.00071454233290344
0.19772718252811
-0.00081433575155811
0.19776954651592
-0.0009158758293913
0.19781781393816
-0.0010191813428903
0.19787236854303
-0.0011243512410291
0.19793357086516
-0.001231175475021
0.19800179905783
-0.0013397511952735
0.19807741698988
-0.0014496844588155
0.1981608796062
-0.0015614424221558
0.19825262537739
-0.0016743586660913
0.19835326755033
-0.0017896072354935
0.19846328772872
-0.0019055748785133
0.19858346355311
-0.0020247508967355
0.19871416808727
-0.0021432428455279
0.19885638157013
-0.0022665934325986
0.19901015511475
-0.0023860058234754
0.19917689263407
-0.0025141622305384
0.19935595537223
-0.0026313954079002
0.19954972362538
-0.0027665867623772
0.19975603346056
-0.0028755384859798
0.19997942527382
-0.0030236523847033
0.20021435696981
-0.0031115811464328
-0.0032865233084836
0.20047012914436
0.18647285375372
-4.8173635107404e-05
0.1864778092951
-0.00014676040071116
0.18648600761959
-0.00024425948162581
0.18649742500337
-0.00034145042081441
0.18651216708119
-0.00043913757534933
0.18653044832306
-0.00053799612221422
0.18655255581216
-0.00063846832591994
0.18657882011019
-0.00074080664767453
0.18660959939349
-0.00084511505145707
0.18664528384514
-0.00095156029764511
0.18668627678877
-0.0010601743029641
0.18673299184941
-0.0011710663180904
0.18678582119624
-0.0012840048380789
0.18684517615076
-0.0013991061659841
0.18691146222248
-0.0015159705464948
0.18698518202817
-0.0016351622437357
0.18706683808956
-0.0017560147431044
0.18715711113952
-0.0018798803009621
0.18725657191566
-0.0020050356698687
0.18736608095933
-0.0021342599554714
0.18748612046565
-0.0022632823665914
0.18761776189361
-0.0023982348751276
0.18776118882922
-0.0025294327733181
0.18791789342302
-0.0026708668383701
0.18808741768797
-0.002800919686549
0.18827219760337
-0.0029513666912503
0.18847034154648
-0.0030736824422282
0.18868635160964
-0.0032396624605703
0.18891513772263
-0.0033403672714987
-0.0035371104978537
0.18916572489904
0.1760066511728
-4.9376062080064e-05
0.17601048616816
-0.00015059541120784
0.17601681672783
-0.00025059005656241
0.17602561699851
-0.00035025070683912
0.17603699714405
-0.00045051773618013
0.17605118184095
-0.0005521808344442
0.17606847210243
-0.00065575860266377
0.17608921468803
-0.00076154924860052
0.17611378613206
-0.00086968651073264
0.17614259717793
-0.00098037135881382
0.17617607342843
-0.0010936505686799
0.17621465144138
-0.001209644346317
0.17625874769211
-0.0013281011039816
0.17630880026391
-0.0014491587529801
0.1763652486191
-0.0015724189167542
0.17642863651336
-0.0016985501530348
0.17649952256009
-0.0018269008046861
0.17657864781202
-0.0019590055676585
0.17666666575084
-0.0020930536231809
0.17676450862797
-0.0022321028469296
0.1768727709293
-0.0023715446819242
0.1769925960063
-0.0025180599658892
0.17712431908709
-0.0026611558675039
0.17726948992441
-0.0028160376887961
0.17742787488402
-0.0029593046588918
0.17760190691664
-0.0031253987362941
0.1777900704788
-0.0032618460164387
0.17799669316902
-0.0034462851624015
0.1782173640759
-0.0035610381894134
-0.0037802824874394
0.1784605360536
0.16612785324564
-5.0207340681328e-05
0.16613057382448
-0.00015331600397525
0.16613504645093
-0.00025506269706881
0.16614124231466
-0.00035644658469379
0.16614927366432
-0.00045854909991096
0.16615937130233
-0.00056227848655057
0.166171844898
-0.00066823221234684
0.16618705132075
-0.00077675568539525
0.16620537876078
-0.00088801396471508
0.16622725119843
-0.0010022438104636
0.16625310883634
-0.0011195082205206
0.16628340329362
-0.0012399388176184
0.16631856756681
-0.0013632653911384
0.16635905863398
-0.0014896498341952
0.1664053417393
-0.0016187020360453
0.16645799316098
-0.0017512015887191
0.166517617862
-0.00188652551956
0.16658500767232
-0.0020263953917613
0.16666088949281
-0.0021689354571959
0.16674625574387
-0.0023174691113095
0.16684180967174
-0.0024670986227384
0.16694874763815
-0.0026249979449297
0.16706757167472
-0.0027799799162488
0.1671998514896
-0.0029483175154617
0.16734562400637
-0.0031050771869732
0.16750724958809
-0.0032870243289097
0.16768369275981
-0.0034382891986388
0.16787896261449
-0.0036415550270936
0.16808956360054
-0.0037716391849862
-0.0040137781717921
0.16832305927454
0.15680349834097
-5.0677003763822e-05
0.15680513082434
-0.00015494850040931
0.1568077885968
-0.00025772048266184
0.15681143973709
-0.0003600977380843
0.1568161958086
-0.0004633051843598
0.15682228954628
-0.00056837223707689
0.15683003405759
-0.00067597673628555
0.15683979022527
-0.00078651186560191
0.1568519511642
-0.00090017491595607
0.15686694652846
-0.0010172391870065
0.15688522322764
-0.0011377849318426
0.15690723956688
-0.0012619551690591
0.15693343703974
-0.0013894628761564
0.15696428270609
-0.001520495512792
0.15700025920231
-0.0016546785444846
0.15704196470536
-0.0017929071040385
0.15709004106697
-0.001934601893336
0.15714531717221
-0.002081671509089
0.15720858423182
-0.0022322025286396
0.15728087841928
-0.0023897633103374
0.15736300765868
-0.0025492278732806
0.15745619872582
-0.0027181890227795
0.1575611309932
-0.0028849121937579
0.15767935673472
-0.0030665432665612
0.15781122446812
-0.003236944929341
0.15795894721044
-0.0034347470796458
0.15812206886118
-0.0036014108572767
0.15830412894269
-0.0038236151160245
0.15850277957324
-0.003970289822612
-0.0042353767831234
0.1587243781767
0.14800247430396
-5.0800389409875e-05
0.14800306373913
-0.00015553794825137
0.14800398071237
-0.00025863746850566
0.14800518891334
-0.00036130595138267
0.1480067975616
-0.00046491384451943
0.14800903743292
-0.00057061211990141
0.14801221992063
-0.00067915923499536
0.14801670388693
-0.00079099584251213
0.14802288086501
-0.00090635190419568
0.14803117876349
-0.0010255370953952
0.14804204359676
-0.0011486497747566
0.14805593202478
-0.0012758436066501
0.14807328607638
-0.0014068169372356
0.14809457368912
-0.0015417831350838
0.1481202862389
-0.0016803911038069
0.14815103216254
-0.0018236530372783
0.14818748038307
-0.0019710501233818
0.14823048112904
-0.0021246722644974
0.14828088067226
-0.0022826020810056
0.14833973866006
-0.002448621306977
0.14840796249394
-0.0026174517154649
0.14848678504923
-0.0027970115857896
0.14857706479789
-0.0029751919493904
0.14868030427838
-0.0031697827532637
0.14879719195056
-0.0033538326069081
0.14892972899764
-0.0035672841313387
0.14907812690483
-0.0037498087684436
0.14924529925446
-0.0039907874691237
0.14943025653623
-0.0041552471077135
-0.0044429579943547
0.1496378377434
0.13969541485824
-5.0597999745331e-05
0.13969502021665
-0.00015514332010478
0.13969429464624
-0.00025791191131604
0.13969319767148
-0.00036020898915798
0.13969183371052
-0.0004635498951532
0.13969042766321
-0.00056920608326662
0.13968928453176
-0.00067801611323783
0.13968875557056
-0.00079046689015624
0.13968922456503
-0.00090682090667605
0.13969111024081
-0.0010274227786082
0.13969485062789
-0.0011523901687584
0.1397008927946
-0.0012818857800488
0.13970967210834
-0.0014155962574711
0.13972164825845
-0.0015537592917153
0.13973731301387
-0.0016960558657147
0.13975727301061
-0.0018436130405599
0.13978221368723
-0.0019959908064754
0.13981299092538
-0.0021554495090076
0.13985049354266
-0.0023201047043391
0.13989578853221
-0.0024939163021625
0.13994986713085
-0.0026715303190973
0.1400139565712
-0.0028611010303412
0.14008907384075
-0.0030503092221906
0.14017665761021
-0.0032573665249115
0.14027772690547
-0.0034549019032474
0.14039404117104
-0.0036835983969325
0.14052653995461
-0.0038823075511638
0.14067739481754
-0.004141642330659
0.14084714737349
-0.0043249996623759
-0.004634540355914
0.14103872973567
0.13185460055918
-5.0093843454798e-05
0.13185329344708
-0.00015383622500295
0.1318510447609
-0.00025566324203682
0.13184780922957
-0.00035697347354452
0.13184368454643
-0.00045942522609618
0.13183888659868
-0.00056440814795404
0.13183371016823
-0.00067283969356759
0.13182849387048
-0.00078525060172792
0.13182360823451
-0.0009019352787088
0.13181945573897
-0.0010232702900994
0.13181646045244
-0.001149394888469
0.1318150520323
-0.0012804773657138
0.13181565316868
-0.0014161973993486
0.13181870592694
-0.0015568120554024
0.13182469554643
-0.0017020454905769
0.13183421439415
-0.0018531318936831
0.13184795376549
-0.0020097301831065
0.13186676068187
-0.0021742564305349
0.13189154888856
-0.0023448929157911
0.13192338423998
-0.002525751657798
0.13196331110338
-0.0027114571858942
0.13201256302653
-0.0029103529558468
0.13207225917936
-0.0031100053761254
0.13214381858085
-0.0033289259260803
0.13222847854398
-0.0035395618645658
0.13232783171079
-0.0037829515604524
0.13244343349875
-0.003997909334644
0.13257681713298
-0.0042750259597551
0.13273014625964
-0.0044783287842183
-0.0048084481978066
0.13290405410559
0.12445386610137
-4.9313625824451e-05
0.12445172462322
-0.00015169477274342
0.12444808643963
-0.0002520250850338
0.12444290042465
-0.00035178748375578
0.12443625490692
-0.0004527797312581
0.12442835399731
-0.00055650725879073
0.12441948059286
-0.00066396630717349
0.12440995582324
-0.0007757258480944
0.12440013038882
-0.00089210985847519
0.12439038381835
-0.001013523732469
0.12438112248002
-0.0011401335619468
0.12437275159714
-0.0012721064939907
0.12436567748199
-0.0014091232949419
0.12436031469102
-0.001551449274993
0.12435713808076
-0.0016988688907606
0.12435671031927
-0.001852704142582
0.1243597219467
-0.0020127418207454
0.1243669915964
-0.0021815260901714
0.1243794455453
-0.0023573468741039
0.12439813467262
-0.0025444407937673
0.12442412530409
-0.0027374478249089
0.12445867813813
-0.0029449057960413
0.12450292439537
-0.0031542516378526
0.12455840536798
-0.0033844069012771
0.12462630260167
-0.0036074590988333
0.12470842618364
-0.0038650751409869
0.12480620454471
-0.0040956876926263
0.1249213647043
-0.0043901861153608
0.1250568968502
-0.0046138609265139
-0.0049638758003121
0.125212324455
0.11746851419971
-4.8284079318939e-05
0.11746561944949
-0.0001488000649054
0.11746073393021
-0.00024713960992645
0.11745379924351
-0.00034485283990845
0.11744489172867
-0.0004438722565894
0.11743419765083
-0.00054581321810493
0.11742198968497
-0.0006517583755406
0.11740857156889
-0.00076230776370772
0.11739426609178
-0.00087780441093528
0.11737942325474
-0.00099868092341997
0.11736442782622
-0.001125138160213
0.11734965337581
-0.0012573320695915
0.11733548811754
-0.001394958062168
0.11732231064445
-0.0015382718270853
0.11731058647393
-0.0016871447451939
0.11730082905553
-0.0018429467489313
0.117293732174
-0.002005644963634
0.11729004985274
-0.0021778437928201
0.11729073622675
-0.0023580332712418
0.11729677156677
-0.0025504761557674
0.11730927151016
-0.002749947788754
0.11732946528258
-0.0029650995869552
0.11735848009476
-0.0031832664663113
0.11739805788042
-0.0034239847006713
0.11744904890459
-0.0036584501341282
0.11751423106687
-0.0039302573116837
0.11759343959345
-0.0041748962253562
0.11769078214551
-0.0044875286721913
0.11780552503368
-0.0047286038196964
-0.005102022798296
0.11794367202395
0.11087523759016
-4.7036822920676e-05
0.11087167753616
-0.00014524007603145
0.11086569276589
-0.00024115490742891
0.11085721553782
-0.00033637567833829
0.11084631789249
-0.00043297467483474
0.11083316040827
-0.00053265579415514
0.11081799354546
-0.00063659156983557
0.11080110672932
-0.00074542100202278
0.11078279351292
-0.00085949124682017
0.11076337687808
-0.00097926433926324
0.11074321491504
-0.0011049762466693
0.11072264309991
-0.0012367603031541
0.11070202854401
-0.0013743435543625
0.11068170813527
-0.0015179514660502
0.11066213729253
-0.0016675739497306
0.11064376179125
-0.0018245712945578
0.11062728831824
-0.001989171536908
0.1106133604257
-0.0021639159457717
0.11060300900472
-0.0023476818944733
0.11059703028308
-0.0025444974766766
0.11059673505942
-0.0027496526053453
0.11060306158423
-0.0029714261493474
0.11061744621268
-0.0031976511292048
0.11064135238033
-0.0034478908995506
0.11067570131618
-0.0036927990977293
0.11072411011868
-0.0039786661384675
0.11078452628723
-0.0042353124149996
0.1108665660302
-0.0045695684342622
0.11095647374192
-0.0048185115504249
-0.0052252390432757
0.11107968996312
0.10465203862741
-4.5609556690653e-05
0.10464792473592
-0.0001411262737792
0.1046409987599
-0.00023422902235372
0.10463118317902
-0.00032656018677895
0.10461855280936
-0.00042034439154597
0.10460327623133
-0.00051737929927095
0.10458556148811
-0.00061887690681418
0.1045656354813
-0.00072549507298634
0.10454378026671
-0.0008376361081407
0.10452030715968
-0.00095579130677365
0.10449553831408
-0.0010802074746257
0.10446977492813
-0.0012109969900223
0.10444336591671
-0.0013479346151958
0.10441661149906
-0.0014911971201106
0.10438994762557
-0.0016409101474452
0.10436374414506
-0.0017983678845424
0.10433870910877
-0.0019641365702486
0.1043153468236
-0.0021405537288643
0.10429479595702
-0.002327131094343
0.1042775640265
-0.0025272656099573
0.10426535305452
-0.0027374416939471
0.10425840773246
-0.0029644808838843
0.10425920598915
-0.0031984494383846
0.1042675676034
-0.00345625256193
0.10428664963731
-0.003711881175448
0.10431695477044
-0.0040089713107729
0.10435982282001
-0.0042781804997079
0.10442539694762
-0.0046351425942182
0.10449599720481
-0.0048891118397558
-0.005333212831649
0.1046039709531
0.098778121430337
-4.4012811801567e-05
0.098773582176604
-0.00013658712497613
0.098765866205976
-0.00022651315731451
0.098754934582159
-0.00031562866678288
0.098740800928593
-0.00040621083917163
0.098723679001257
-0.00050025747048786
0.098703885411544
-0.00059908341338369
0.098681360911121
-0.00070297066718238
0.098656468884026
-0.00081274417448621
0.098629494189653
-0.00092881670513682
0.098600699562121
-0.0010514129393199
0.098570359125447
-0.0011806566452764
0.098538805895252
-0.0013163814765623
0.098506318452964
-0.0014587097690671
0.098473303568635
-0.001607895353788
0.098440078111743
-0.001765142517644
0.098407310926461
-0.0019313694737437
0.098375397726492
-0.0021086406159789
0.098345500184576
-0.0022972336367718
0.098317893436887
-0.0024996589429564
0.098294581201955
-0.0027141295348208
0.098275117170298
-0.0029450169225851
0.098263210644733
-0.0031865429772895
0.098256313401588
-0.0034493553775391
0.098261931585858
-0.0037174994126567
0.098272324392955
-0.0040193641649336
0.098302287155716
-0.0043081433042154
0.098334631048498
-0.0046674865258969
0.098392532615087
-0.0049470134468117
0.098517665598784
-0.0054583458650716
0.39467189165356
0.0046439776177801
0.39018706311796
0.0044848285060558
0.38586585638823
0.0043212067002891
0.38171262749147
0.0041532288670361
0.37773159341472
0.0039810340466503
0.37392683319603
0.0038047601880339
0.37030227845607
0.0036245547087906
0.36686170321672
0.0034405752075784
0.3636087169378
0.0032529862466468
0.36054676057016
0.0030619563347832
0.35767910327783
0.0028676572590507
0.35500883895112
0.0026702642929211
0.3525388819797
0.0024699569372928
0.35027196285076
0.0022669190944009
0.34821062352155
0.0020613392944643
0.34635721312247
0.0018534103640184
0.34471388387491
0.00164332921242
0.34328258751349
0.0014312963260742
0.34206507186822
0.0012175156099366
0.34106287756941
0.0010021942633835
0.34027733425615
0.00078554327792556
0.33970955537497
0.00056777884580011
0.3393604271169
0.00034912822283961
0.33923055930143
0.00012986778021474
0.33932048564543
-8.9926379091023e-05
0.33963060774986
-0.00031012213956892
0.34016082388989
-0.00053021617500992
0.34091092057684
-0.00075009672197835
0.34188046908769
-0.00096954854573108
0.34306881397494
-0.0011883449221773