/*--------------------------------*- C++ -*----------------------------------*\
| =========                 |                                                 |
| \\      /  F ield         | OpenFOAM: The Open Source CFD Toolbox           |
|  \\    /   O peration     | Version:  2112                                  |
|   \\  /    A nd           | Website:  www.openfoam.com                      |
|    \\/     M anipulation  |                                                 |
\*---------------------------------------------------------------------------*/
FoamFile
{
    version     2.0;
    format      ascii;
    arch        "LSB;label=32;scalar=64";
    class       volVectorField;
    location    "15";
    object      U;
}
// * * * * * * * * * * * * * * * * * * * * * * * * * * * * * * * * * * * * * //

dimensions      [0 1 -1 0 0 0 0];

internalField   nonuniform List<vector> 
22000
(
(1.000000977233 -2.5662608643967e-05 0)
(1.0000266607671 -7.7342787886608e-05 0)
(1.0000761013419 -0.0001288917401747 0)
(1.0001503527028 -0.00018024783762989 0)
(1.0002498114731 -0.00023140513797041 0)
(1.0003743886983 -0.00028235107231094 0)
(1.0005238238417 -0.00033307183153225 0)
(1.0006978733971 -0.00038355151986231 0)
(1.000896350826 -0.00043375096821673 0)
(1.0011191229575 -0.00048365152426692 0)
(1.001366067474 -0.00053324001752716 0)
(1.001637082643 -0.00058255950779662 0)
(1.0019320448866 -0.00063159210958608 0)
(1.0022508504048 -0.00068035141951916 0)
(1.0025933155498 -0.00072866981901494 0)
(1.0029592630695 -0.00077651033022729 0)
(1.0033483397722 -0.00082354265137267 0)
(1.0037602550707 -0.00086987091714254 0)
(1.004194448302 -0.00091499806928219 0)
(1.004650612519 -0.00095943933133291 0)
(1.0051279855993 -0.0010022600967214 0)
(1.0056264102948 -0.0010447888620202 0)
(1.0061448196999 -0.0010849187140363 0)
(1.0066834136252 -0.0011257395466562 0)
(1.0072405021717 -0.0011623787385039 0)
(1.0078170124779 -0.0012020209110473 0)
(1.0084100046338 -0.0012334605332893 0)
(1.0090219193635 -0.0012734366318433 0)
(1.0096474368493 -0.0012961782346575 0)
(1.0102921186101 -0.0013405094392989 0)
(1.0000004160112 -7.5350841407308e-05 0)
(1.0000258878807 -0.00022731667959347 0)
(1.0000752238795 -0.00037904476857048 0)
(1.0001494173435 -0.00053030563922481 0)
(1.0002489240104 -0.00068106070678949 0)
(1.0003737349622 -0.00083127157252283 0)
(1.0005236466554 -0.00098090283577539 0)
(1.0006984579194 -0.0011299097404347 0)
(1.0008980033453 -0.0012781757067714 0)
(1.0011221841976 -0.0014256438228444 0)
(1.0013708938611 -0.0015722754623594 0)
(1.0016440811267 -0.0017181969182845 0)
(1.0019416243688 -0.0018633557876294 0)
(1.0022634923004 -0.00200778747513 0)
(1.0026094648962 -0.0021509977601504 0)
(1.0029794870687 -0.0022928689971814 0)
(1.0033730922198 -0.002432434266607 0)
(1.0037902278842 -0.0025699854690198 0)
(1.0042300556249 -0.0027040801422527 0)
(1.0046927569189 -0.0028362002680944 0)
(1.0051769266757 -0.0029636496320641 0)
(1.0056834349389 -0.0030902473004495 0)
(1.0062097710079 -0.0032099351540524 0)
(1.0067583383545 -0.0033315690615621 0)
(1.0073242620822 -0.003441185382319 0)
(1.0079132418946 -0.0035593110300534 0)
(1.0085153994777 -0.0036539591805602 0)
(1.0091435001596 -0.00377280035085 0)
(1.0097773485316 -0.0038425682098915 0)
(1.010444713634 -0.0039734488627376 0)
(1.0000004286823 -0.000122501593991 0)
(1.0000265236713 -0.00036984271654931 0)
(1.0000769673901 -0.00061692914980437 0)
(1.0001526469287 -0.00086338386443946 0)
(1.0002539677576 -0.0011091590410764 0)
(1.0003809437207 -0.0013542155231769 0)
(1.0005334226808 -0.0015985158324751 0)
(1.0007112701652 -0.001841998738481 0)
(1.0009143676364 -0.0020844785759189 0)
(1.0011426829472 -0.0023258684285359 0)
(1.0013961426367 -0.0025661029631051 0)
(1.0016747785143 -0.0028053851140737 0)
(1.0019784735557 -0.0030436109764232 0)
(1.0023073105094 -0.003280836611245 0)
(1.0026610122777 -0.0035162396346628 0)
(1.0030397216561 -0.0037496570260493 0)
(1.0034427972751 -0.0039794949621117 0)
(1.0038705822221 -0.0042062926606337 0)
(1.004321797748 -0.0044276348009672 0)
(1.0047974397586 -0.0046460479807457 0)
(1.0052950470104 -0.0048569622221875 0)
(1.005817214768 -0.0050668391951627 0)
(1.0063589921131 -0.0052654113811621 0)
(1.0069265464974 -0.0054676629069844 0)
(1.0075094840078 -0.00564997298177 0)
(1.0081218400465 -0.0058470518251763 0)
(1.0087413957075 -0.0060048546081826 0)
(1.0093994167317 -0.0062038921578917 0)
(1.010048499079 -0.0063205077906012 0)
(1.0107574354463 -0.0065405757996433 0)
(1.0000004244979 -0.00016788327933797 0)
(1.0000270795517 -0.00050707268936829 0)
(1.0000785957306 -0.00084586494090196 0)
(1.0001558323623 -0.0011838368129549 0)
(1.0002591785843 -0.0015210264487532 0)
(1.0003886726 -0.0018574625357432 0)
(1.0005442098822 -0.0021931463782311 0)
(1.0007257339748 -0.0025280249680612 0)
(1.0009331883249 -0.0028618617978328 0)
(1.0011666375477 -0.0031945591347739 0)
(1.0014260594352 -0.0035260262367182 0)
(1.0017116074388 -0.0038565350709565 0)
(1.0020231735846 -0.0041859023376987 0)
(1.0023610042144 -0.0045142052140761 0)
(1.002724743013 -0.0048402879664029 0)
(1.0031148165332 -0.0051640027906318 0)
(1.003530339907 -0.0054831379848324 0)
(1.0039722233665 -0.0057985822311729 0)
(1.0044385716132 -0.006106888785814 0)
(1.0049315433529 -0.0064117663249343 0)
(1.0054471907788 -0.0067065633917012 0)
(1.0059905606188 -0.0070006548240566 0)
(1.0065532595543 -0.00727909916738 0)
(1.007146787431 -0.0075636447042244 0)
(1.0077529633977 -0.0078200149189408 0)
(1.0083976118907 -0.008098554765852 0)
(1.0090411235775 -0.0083209527841172 0)
(1.0097408917513 -0.008603796057225 0)
(1.0104112366592 -0.0087681239819078 0)
(1.0111787466841 -0.0090827037942658 0)
(1.0000004156792 -0.00021151203902066 0)
(1.0000275957957 -0.00063916015801045 0)
(1.00008012534 -0.0010661628280205 0)
(1.0001588429038 -0.0014921295767435 0)
(1.0002641345479 -0.0019172902588731 0)
(1.0003960795443 -0.002341832058792 0)
(1.0005546356041 -0.0027658537891523 0)
(1.0007398446181 -0.0031893452290737 0)
(1.0009517292571 -0.003612041462648 0)
(1.0011904809575 -0.0040338575831348 0)
(1.0014561479414 -0.0044546813467513 0)
(1.00174904535 -0.0048748501958906 0)
(1.0020690830363 -0.0052940719246162 0)
(1.0024167238654 -0.0057124491644719 0)
(1.0027915182965 -0.0061284834831921 0)
(1.0031942648907 -0.006542114751687 0)
(1.0036237783543 -0.0069505151422259 0)
(1.0040817040309 -0.0073550496748976 0)
(1.0045653739571 -0.007751157677218 0)
(1.0050784410909 -0.0081439127650025 0)
(1.0056150831935 -0.0085243099224451 0)
(1.0061834779741 -0.0089050024183927 0)
(1.0067708824295 -0.0092657633919171 0)
(1.0073955763142 -0.0096359534295065 0)
(1.0080295393367 -0.0099693189753559 0)
(1.0087135325955 -0.01033376687936 0)
(1.0093859908248 -0.010623804256724 0)
(1.0101373082119 -0.010996387111361 0)
(1.0108335531071 -0.011210800327989 0)
(1.0116740804753 -0.011628230106824 0)
(1.0000004010348 -0.00025331085621234 0)
(1.0000280006735 -0.00076590705328876 0)
(1.0000813399494 -0.0012775158506656 0)
(1.0001612259042 -0.0017878696193087 0)
(1.0002680429817 -0.0022975035529277 0)
(1.0004019269996 -0.0028068610441291 0)
(1.0005629180914 -0.0033162032745893 0)
(1.0007511826827 -0.0038256020879171 0)
(1.0009668441564 -0.0043347896507081 0)
(1.0012102525252 -0.0048437209647394 0)
(1.0014815474695 -0.005352267004728 0)
(1.00178124647 -0.0058608280736302 0)
(1.0021092892876 -0.0063689705681678 0)
(1.0024664085649 -0.0068768297766809 0)
(1.0028520535529 -0.007382554426439 0)
(1.0032674815949 -0.0078862573066837 0)
(1.0037111621276 -0.0083844958402847 0)
(1.0041856371511 -0.0088792605821798 0)
(1.0046873344953 -0.0093647808733279 0)
(1.0052217118066 -0.0098477123617967 0)
(1.0057807351415 -0.010316380646954 0)
(1.0063763336857 -0.010787149157035 0)
(1.0069906175043 -0.011233794279337 0)
(1.0076499440728 -0.011694283046559 0)
(1.0083146464268 -0.012108847397377 0)
(1.0090432100509 -0.012565201734896 0)
(1.0097481115333 -0.012927286336307 0)
(1.0105587731258 -0.013397402868415 0)
(1.0112843480791 -0.013665604727662 0)
(1.0122099771776 -0.014196483196702 0)
(1.0000003788907 -0.00029311176641725 0)
(1.0000281985322 -0.00088682311968516 0)
(1.0000819640094 -0.0014791099311965 0)
(1.0001624414881 -0.0020699286135078 0)
(1.0002700142145 -0.0026602422206013 0)
(1.0004048882268 -0.003250854311653 0)
(1.0005672054053 -0.0038422576103308 0)
(1.0007572830486 -0.0044346489594078 0)
(1.0009753676992 -0.0050277866350634 0)
(1.0012219997429 -0.0056216971219049 0)
(1.0014974323282 -0.0062162421933204 0)
(1.0018024253031 -0.0068118853275628 0)
(1.002136962965 -0.0074080194903996 0)
(1.0025020999412 -0.0080048245688802 0)
(1.0028971825235 -0.0086000891273462 0)
(1.003324010627 -0.0091941961397454 0)
(1.0037806769051 -0.0097830933700947 0)
(1.0042707718696 -0.010369564103085 0)
(1.0047897153153 -0.01094652683967 0)
(1.0053450521681 -0.011522460626568 0)
(1.0059262586529 -0.01208268225329 0)
(1.0065495644654 -0.012647738897042 0)
(1.0071912646282 -0.013184642660023 0)
(1.007886918125 -0.013741045644223 0)
(1.0085836955034 -0.014242008130029 0)
(1.009360180961 -0.014797470119389 0)
(1.0100995517664 -0.015237169044027 0)
(1.0109753256768 -0.015814077406189 0)
(1.0117325846483 -0.016141028480196 0)
(1.0127530568817 -0.016797706306231 0)
(1.0000003477974 -0.00033067219927339 0)
(1.0000280998008 -0.0010011840157804 0)
(1.000081732873 -0.0016697313996129 0)
(1.000161970222 -0.0023366035597657 0)
(1.0002691989674 -0.0030033231614812 0)
(1.0004037074654 -0.0036711653792629 0)
(1.0005657551469 -0.0043409285769456 0)
(1.0007558327685 -0.005012981066386 0)
(1.0009743305858 -0.0056871392637949 0)
(1.0012220092914 -0.0063635362252508 0)
(1.0014992578867 -0.0070420349486782 0)
(1.0018071171021 -0.0077231655288517 0)
(1.0021456328414 -0.0084061178328844 0)
(1.0025162313427 -0.0090911334802829 0)
(1.0029181605371 -0.0097756388024358 0)
(1.0033538410347 -0.010460394524046 0)
(1.0038209717633 -0.01114075098849 0)
(1.0043243294203 -0.011820464584511 0)
(1.0048582537507 -0.012491045621095 0)
(1.005432623921 -0.013163051908461 0)
(1.0060342175885 -0.013818447972821 0)
(1.0066840265357 -0.014482455954181 0)
(1.0073520166071 -0.015114542849275 0)
(1.0080838641779 -0.01577315116906 0)
(1.008812402049 -0.016366487079075 0)
(1.0096382056363 -0.017029172851493 0)
(1.0104125736909 -0.017553068582977 0)
(1.0113570775981 -0.018247187389442 0)
(1.0121472840883 -0.018639116877538 0)
(1.013269793659 -0.0194353345364 0)
(1.0000003069874 -0.00036570459683911 0)
(1.0000276312617 -0.001108123456836 0)
(1.0000804322221 -0.0018479284136262 0)
(1.0001593811904 -0.0025858537295735 0)
(1.0002648722247 -0.0033241183414215 0)
(1.0003972899209 -0.0040645853867991 0)
(1.0005570280066 -0.0048084368081838 0)
(1.000744772303 -0.0055562619338106 0)
(1.0009610761349 -0.0063079705927511 0)
(1.0012069467983 -0.0070638407123473 0)
(1.0014829293794 -0.0078237496867736 0)
(1.0017903793411 -0.0085883000943164 0)
(1.0021294220072 -0.0093564525892835 0)
(1.0025018997652 -0.010128532478451 0)
(1.0029069729577 -0.010901609366543 0)
(1.0033477521399 -0.011676937197245 0)
(1.0038215412314 -0.012449292078773 0)
(1.0043344208853 -0.013223591256164 0)
(1.0048796147346 -0.013989852541146 0)
(1.00546953683 -0.014760969953545 0)
(1.0060881382842 -0.015515231130076 0)
(1.0067615277033 -0.01628301429078 0)
(1.0074530055761 -0.017015497449617 0)
(1.0082190361746 -0.01778297935915 0)
(1.0089773342572 -0.018475213480203 0)
(1.0098517969182 -0.01925384660547 0)
(1.0106601373442 -0.019869387986583 0)
(1.0116746744409 -0.020691956882248 0)
(1.0124979471147 -0.021156362988429 0)
(1.0137268943495 -0.022106803973368 0)
(1.0000002555163 -0.0003979014799763 0)
(1.0000267330437 -0.0012067081959072 0)
(1.000077890706 -0.002012140385332 0)
(1.0001543329258 -0.0028154902790843 0)
(1.0002564600677 -0.0036198089336519 0)
(1.0003847636172 -0.0044276635133532 0)
(1.0005397860228 -0.0052406980255523 0)
(1.0007224256546 -0.0060597731498711 0)
(1.0009334155092 -0.0068849291681959 0)
(1.0011740332284 -0.0077166289805254 0)
(1.0014450006055 -0.0085547812078291 0)
(1.0017480165677 -0.0094000700405352 0)
(1.0020833029638 -0.010251206467055 0)
(1.0024531539778 -0.011108625174852 0)
(1.0028566579888 -0.0119690540168 0)
(1.0032976716649 -0.012834359957975 0)
(1.003773119006 -0.013698782851172 0)
(1.0042904763556 -0.014568589221952 0)
(1.0048418546884 -0.015432243191852 0)
(1.0054423464798 -0.01630522135162 0)
(1.0060730389356 -0.017161852991193 0)
(1.0067653847721 -0.018038112712209 0)
(1.0074758856433 -0.018876236691886 0)
(1.0082721797019 -0.019759333733702 0)
(1.0090565267011 -0.020557306330249 0)
(1.0099768432446 -0.021460888824366 0)
(1.0108165244484 -0.022176221267609 0)
(1.0118999225656 -0.023138921672644 0)
(1.012755171456 -0.02368454056209 0)
(1.0140919306913 -0.024804333774223 0)
(1.0000001936342 -0.00042696298462762 0)
(1.000025361963 -0.001296022432967 0)
(1.0000739810733 -0.0021608355792874 0)
(1.0001465706354 -0.0030233638729794 0)
(1.0002435328458 -0.0038876225057935 0)
(1.0003654736561 -0.0047569948580188 0)
(1.0005130964977 -0.0056336633299905 0)
(1.0006875261146 -0.0065188086138913 0)
(1.0008896881728 -0.0074126386635392 0)
(1.0011211457189 -0.0083158407454948 0)
(1.0013828122093 -0.0092283743810332 0)
(1.0016767513602 -0.010151015903182 0)
(1.0020033005817 -0.011082214593822 0)
(1.0023652316303 -0.012022543200187 0)
(1.0027615809093 -0.01296841552413 0)
(1.0031969892538 -0.013922430446182 0)
(1.0036680318255 -0.014878348570634 0)
(1.0041836400442 -0.015843966277611 0)
(1.0047348577235 -0.016806166095692 0)
(1.0053395317592 -0.017783228325555 0)
(1.0059759474651 -0.018745310102038 0)
(1.0066809830934 -0.019734349019592 0)
(1.007404429187 -0.020683135258374 0)
(1.0082251680741 -0.021688349875913 0)
(1.0090301512462 -0.022598971967442 0)
(1.0099913180398 -0.023636432104844 0)
(1.0108580655157 -0.02446020263479 0)
(1.0120065475469 -0.025574739087691 0)
(1.0128913920525 -0.026211474876731 0)
(1.0143340942203 -0.02751564455527 0)
(1.0000001212094 -0.00045262246114299 0)
(1.0000234916063 -0.0013752454902594 0)
(1.000068624777 -0.0022926408945613 0)
(1.0001359356006 -0.0032075450699534 0)
(1.0002258224915 -0.0041250616509094 0)
(1.0003390091569 -0.0050494949998351 0)
(1.0004763685931 -0.0059836380360309 0)
(1.0006392591402 -0.0069290367179033 0)
(1.0008288082025 -0.0078861043010608 0)
(1.0010468710918 -0.0088557892463339 0)
(1.0012945652717 -0.0098381245560134 0)
(1.0015743269623 -0.010833986973253 0)
(1.0018866261885 -0.011841562151192 0)
(1.0022347230837 -0.012861587656021 0)
(1.0026176309925 -0.013890209580034 0)
(1.0030407892494 -0.014930868678593 0)
(1.0035004731911 -0.015976930098918 0)
(1.0040070878624 -0.017037880038569 0)
(1.0045506982897 -0.018099036951985 0)
(1.0051519064078 -0.019181665118771 0)
(1.0057863595868 -0.020251626392311 0)
(1.0064962838412 -0.021357082720006 0)
(1.0072250808847 -0.022421079353816 0)
(1.0080626065542 -0.023554359473599 0)
(1.0088811561928 -0.024584358659763 0)
(1.0098759721709 -0.02576418521878 0)
(1.0107638602328 -0.026705323881596 0)
(1.0119709752309 -0.027982982125823 0)
(1.0128816770492 -0.028721804004234 0)
(1.0144250689057 -0.030224690675385 0)
(1.0000000392165 -0.00047466447182416 0)
(1.0000211132736 -0.001443707179762 0)
(1.0000617940488 -0.0024064341197034 0)
(1.0001223709188 -0.0033664539293492 0)
(1.0002032307378 -0.0043300719079323 0)
(1.0003052139914 -0.0053026078308811 0)
(1.0004293680685 -0.0062875309572534 0)
(1.0005772840568 -0.0072867922074273 0)
(1.000750296584 -0.0083010467861858 0)
(1.0009505485213 -0.0093315363446069 0)
(1.0011793719583 -0.010378393928286 0)
(1.0014395666595 -0.011442600613005 0)
(1.0017317566812 -0.01252208936559 0)
(1.0020596739853 -0.013617779831308 0)
(1.0024223520576 -0.014725621475762 0)
(1.0028260059454 -0.015849983142323 0)
(1.003266691956 -0.016983962415817 0)
(1.0037562488215 -0.018138848707578 0)
(1.0042839040543 -0.019298486642383 0)
(1.0048729261853 -0.020487232898836 0)
(1.0054965908171 -0.021666651739458 0)
(1.0062022315168 -0.022891256250906 0)
(1.0069274120532 -0.024074295639532 0)
(1.0077723452154 -0.025340728275818 0)
(1.0085958301235 -0.026496392639056 0)
(1.0096149586082 -0.027826260191294 0)
(1.0105164329596 -0.02889374179961 0)
(1.0117730447646 -0.030344926748233 0)
(1.0127044422971 -0.031197724147404 0)
(1.0143398190829 -0.032912382572857 0)
(0.99999994818538 -0.00049293723143516 0)
(1.0000182363721 -0.0015009259721566 0)
(1.0000535136408 -0.0025014084181089 0)
(1.0001059224179 -0.0034989515776297 0)
(1.0001758294528 -0.0045011610612888 0)
(1.0002641870379 -0.0055144541381697 0)
(1.0003722167422 -0.0065430330350659 0)
(1.0005017344535 -0.0075892874340478 0)
(1.0006542814949 -0.0086541474568841 0)
(1.0008322733575 -0.0097391754504332 0)
(1.0010372628988 -0.01084463186096 0)
(1.0012723891726 -0.011971602204469 0)
(1.0015384529678 -0.013117789445588 0)
(1.001839616232 -0.014284301854169 0)
(1.0021749902391 -0.015466989296687 0)
(1.002551493515 -0.016671198736202 0)
(1.0029650878314 -0.017889945774776 0)
(1.0034289228653 -0.019136360706296 0)
(1.0039316110871 -0.020393014690954 0)
(1.004498876227 -0.021687345980719 0)
(1.0051020046207 -0.022976784238314 0)
(1.0057930355545 -0.024322150439543 0)
(1.0065044408975 -0.025627124337484 0)
(1.0073458610244 -0.027030652579759 0)
(1.0081642384135 -0.028317586753101 0)
(1.0091963257717 -0.029803980673955 0)
(1.0101022791743 -0.031006576069027 0)
(1.0113966576073 -0.032640357980213 0)
(1.0123421183247 -0.033619746821552 0)
(1.0140573562634 -0.035557342525473 0)
(0.99999984972008 -0.00050735970263423 0)
(1.0000148863474 -0.0015466316200124 0)
(1.0000438545733 -0.0025771099361322 0)
(1.0000867298817 -0.0036043934106735 0)
(1.0001438473952 -0.004637469675459 0)
(1.0002162640403 -0.0056839213707939 0)
(1.0003053683534 -0.0067487287900547 0)
(1.0004131887734 -0.00783474821009 0)
(1.0005414618929 -0.0089432103054518 0)
(1.0006928582942 -0.010076023909003 0)
(1.0008691413189 -0.011233596785628 0)
(1.0010737666663 -0.012417125859732 0)
(1.0013077103584 -0.013624098713615 0)
(1.0015755311847 -0.014855835419012 0)
(1.0018764434106 -0.016108165444062 0)
(1.0022180080125 -0.01738748338971 0)
(1.002596184316 -0.018686889335303 0)
(1.0030252991043 -0.020021389478925 0)
(1.0034935856683 -0.021372529565565 0)
(1.0040289265704 -0.022770714209075 0)
(1.0046011140053 -0.024169614396335 0)
(1.0052662888888 -0.025636039729306 0)
(1.0059528146274 -0.027064721058363 0)
(1.006778496746 -0.02860791209325 0)
(1.0075804887257 -0.030030778108915 0)
(1.0086123750069 -0.031678657491207 0)
(1.0095122584797 -0.033024693552035 0)
(1.0108302313989 -0.034848356741802 0)
(1.0117816355293 -0.035967442151453 0)
(1.0135613335835 -0.038136670058366 0)
(0.99999974484407 -0.00051792372174589 0)
(1.0000111038589 -0.0015807733076109 0)
(1.0000329313333 -0.0026334524794274 0)
(1.0000650162675 -0.0036826496241327 0)
(1.0001076510982 -0.0047387982467688 0)
(1.0001619875906 -0.0058106987320597 0)
(1.0002295684173 -0.0069041429238584 0)
(1.000312616843 -0.0080224735228811 0)
(1.000413044877 -0.0091672410183465 0)
(1.000533754718 -0.010340720634131 0)
(1.00067669853 -0.011543482997567 0)
(1.0008456213712 -0.012776842891265 0)
(1.0010416567339 -0.014038086154077 0)
(1.0012697274037 -0.015328772242745 0)
(1.0015291496472 -0.016644780570428 0)
(1.001828075501 -0.017993631684753 0)
(1.0021625115634 -0.019368651811778 0)
(1.002547844742 -0.020786778225155 0)
(1.0029721164442 -0.022228759364639 0)
(1.0034650677337 -0.023727845822126 0)
(1.0039955062099 -0.025234421380337 0)
(1.0046229512672 -0.026820764430941 0)
(1.0052728201137 -0.028373690965897 0)
(1.0060695082062 -0.030057499564104 0)
(1.0068428427886 -0.03161981620822 0)
(1.007859837185 -0.033432354241798 0)
(1.0087418265351 -0.034929435150917 0)
(1.0100670113364 -0.036948038620495 0)
(1.0110147822548 -0.038220172890811 0)
(1.0128405157034 -0.040626739910775 0)
(0.9999996355931 -0.0005246924423109 0)
(1.0000069408187 -0.0016035140931223 0)
(1.0000208896684 -0.0026707096836841 0)
(1.0000410718208 -0.0037340951781333 0)
(1.0000677207269 -0.0048055981366162 0)
(1.0001020710358 -0.0058952705320482 0)
(1.0001458030643 -0.0070097366903202 0)
(1.0002013114772 -0.0081528368837409 0)
(1.0002706583733 -0.0093264548070983 0)
(1.0003569467312 -0.010533245125084 0)
(1.0004622890987 -0.011773953724375 0)
(1.0005906824536 -0.013050015562597 0)
(1.0007433931196 -0.014358530678822 0)
(1.0009256619677 -0.015701319377714 0)
(1.0011369002668 -0.01707438381314 0)
(1.0013857819612 -0.018486432680472 0)
(1.0016684026105 -0.019931163578587 0)
(1.0020010715136 -0.021427478834287 0)
(1.0023718089902 -0.022955571474491 0)
(1.0028118932052 -0.024551391380317 0)
(1.0032896419699 -0.026162569870381 0)
(1.0038671824504 -0.027866217443872 0)
(1.0044682139745 -0.029542562652491 0)
(1.0052219394959 -0.031366179174331 0)
(1.0059536430544 -0.033070199488986 0)
(1.0069398394228 -0.035048513776763 0)
(1.0077910518718 -0.036703281977319 0)
(1.0091052238112 -0.038919377689233 0)
(1.0100383797716 -0.040357827291994 0)
(1.0118890254732 -0.043003979654951 0)
(0.99999952332434 -0.00052779443747068 0)
(1.0000024560165 -0.0016152095263223 0)
(1.0000079135736 -0.0026894647306869 0)
(1.0000152457841 -0.0037595508130483 0)
(1.0000246278322 -0.0048389012059816 0)
(1.0000373629834 -0.0059388387873241 0)
(1.000055248303 -0.0070668298032668 0)
(1.0000808202917 -0.0082272126022281 0)
(1.0001162616753 -0.0094222098773411 0)
(1.0001648374229 -0.010654859215519 0)
(1.0002287896563 -0.011926091869949 0)
(1.0003123178296 -0.013237460050535 0)
(1.000416798098 -0.01458589859306 0)
(1.0005477208171 -0.015973499136619 0)
(1.0007045960996 -0.017396465087094 0)
(1.0008965073284 -0.018864725627363 0)
(1.0011197109654 -0.020372515111452 0)
(1.0013912257093 -0.02194067338374 0)
(1.0016992787415 -0.023549156485451 0)
(1.0020762548412 -0.02523633718125 0)
(1.0024905564979 -0.026947821734845 0)
(1.0030060065151 -0.028764654901752 0)
(1.0035459359549 -0.030562180579753 0)
(1.0042423560695 -0.032522987889791 0)
(1.0049190248539 -0.034369510870588 0)
(1.0058576860059 -0.036512530662903 0)
(1.0066644168478 -0.038330475610121 0)
(1.007947952888 -0.040743900204156 0)
(1.0088542917376 -0.042361515333528 0)
(1.0107064225845 -0.045245710704252 0)
(0.99999940971501 -0.00052741090430762 0)
(0.9999977187302 -0.0016163935790547 0)
(0.99999417117004 -0.0026906354441441 0)
(0.99998789219588 -0.0037602862769378 0)
(0.99997897484164 -0.0048403061217845 0)
(0.99996877332215 -0.0059432882627601 0)
(0.99995918012781 -0.0070775404395081 0)
(0.99995283916458 -0.0082478920140452 0)
(0.99995202358036 -0.0094569069179166 0)
(0.99996011092524 -0.010707998404977 0)
(0.99997944067437 -0.012002290879012 0)
(1.0000143506131 -0.013341441394768 0)
(1.0000663124582 -0.014722244855032 0)
(1.000140974083 -0.016147060876623 0)
(1.0002379661662 -0.017612378694778 0)
(1.0003666239927 -0.01912934673049 0)
(1.000523466738 -0.020692919876752 0)
(1.0007259396655 -0.02232578459206 0)
(1.0009627490071 -0.02400804259853 0)
(1.0012668650907 -0.025780111464186 0)
(1.0016074128003 -0.027586422703392 0)
(1.0020488810079 -0.029510921108927 0)
(1.00251566863 -0.031425943774245 0)
(1.0031404416608 -0.033519583979017 0)
(1.0037485397878 -0.035507818155773 0)
(1.0046224674375 -0.037812241858944 0)
(1.005370455152 -0.03979742197854 0)
(1.0066027074543 -0.042405218634365 0)
(1.0074691131967 -0.044214233009002 0)
(1.009297662043 -0.047331127892833 0)
(0.99999929720134 -0.0005237715007882 0)
(0.99999278833082 -0.0016077311524519 0)
(0.99997986547544 -0.0026753239178864 0)
(0.99995940052454 -0.0037378638401578 0)
(0.99993140449519 -0.0048118190973535 0)
(0.9998972621852 -0.005911034145501 0)
(0.99985893880852 -0.0070446481122748 0)
(0.9998191462313 -0.0082179599074344 0)
(0.99978022146606 -0.0094338694548257 0)
(0.99974559619983 -0.010696146719126 0)
(0.99971767833986 -0.012006125881932 0)
(0.99970086524784 -0.013365544802079 0)
(0.9996967166803 -0.014771093925204 0)
(0.99971092819104 -0.016225371828354 0)
(0.99974328047579 -0.017725250419206 0)
(0.99980318268494 -0.019283050377023 0)
(0.99988751724517 -0.020894648636613 0)
(1.0000138489001 -0.022584436181587 0)
(1.0001716248722 -0.024333056741942 0)
(1.0003938493639 -0.026182601415741 0)
(1.0006510005524 -0.028077098596184 0)
(1.001007176517 -0.03010254477953 0)
(1.0013892646182 -0.032129864129435 0)
(1.0019284295256 -0.03435051807501 0)
(1.0024546703556 -0.0364778731829 0)
(1.0032465777991 -0.038938455315033 0)
(1.0039213695346 -0.041092938951447 0)
(1.0050808250886 -0.043889342279625 0)
(1.005893428136 -0.045900905865874 0)
(1.0076724449229 -0.049241128256916 0)
(0.99999918657807 -0.00051713155931073 0)
(0.99998772094788 -0.0015899772053587 0)
(0.99996515610207 -0.0026448154640123 0)
(0.99993011352219 -0.0036940981041326 0)
(0.99988251691437 -0.0047557714622785 0)
(0.99982375222935 -0.0058448925749568 0)
(0.99975583673391 -0.0069714239978879 0)
(0.99968150998206 -0.0081411088124253 0)
(0.99960314961969 -0.0093571651565512 0)
(0.99952415831491 -0.010623671621018 0)
(0.99944699211544 -0.011942200064331 0)
(0.99937602075806 -0.013314523420245 0)
(0.9993129068315 -0.014737295017173 0)
(0.99926326378415 -0.016213280803971 0)
(0.99922706441056 -0.017739869935937 0)
(0.99921359352901 -0.019330434321778 0)
(0.99922018681028 -0.020981996326546 0)
(0.99926421643191 -0.022720466086903 0)
(0.99933607929884 -0.02452736428556 0)
(0.99946831030838 -0.026446226942763 0)
(0.99963323348362 -0.028421115536882 0)
(0.99989366511848 -0.030539828079729 0)
(1.0001801171766 -0.032672492360646 0)
(1.0006204435698 -0.035013391602953 0)
(1.0010520729735 -0.037274788221491 0)
(1.0017451882075 -0.039885534533256 0)
(1.002332831299 -0.042208071213762 0)
(1.0033972652916 -0.045185221254295 0)
(1.0041417161297 -0.047406986555405 0)
(1.0058444393042 -0.05095652043008 0)
(0.99999907628375 -0.00050777234854181 0)
(0.99998256137908 -0.0015639564452728 0)
(0.9999501909583 -0.0026004820296455 0)
(0.99990034931365 -0.0036309006274271 0)
(0.99983287493353 -0.0046746129112642 0)
(0.99974910958786 -0.0057478289690988 0)
(0.99965109014088 -0.0068613080766298 0)
(0.9995415628962 -0.0080212121302866 0)
(0.99942295598365 -0.0092310915792489 0)
(0.99929852510144 -0.01049528429808 0)
(0.99917075705619 -0.011815626056053 0)
(0.99904386792484 -0.013193817399967 0)
(0.99891968879667 -0.014626574422073 0)
(0.99880355842985 -0.01611667727839 0)
(0.9986957878096 -0.017662253028827 0)
(0.99860521503066 -0.019277454757284 0)
(0.99852987741419 -0.020960823460096 0)
(0.99848642451335 -0.022739390297413 0)
(0.99846662746258 -0.024596065217841 0)
(0.99850178360072 -0.02657542202376 0)
(0.99856674155026 -0.028621954729746 0)
(0.99872202047808 -0.030825363277968 0)
(0.99890271487143 -0.033054400683243 0)
(0.99923208002573 -0.035508265709261 0)
(0.99955657667317 -0.037894516493852 0)
(1.0001358488927 -0.040651177656805 0)
(1.0006227150813 -0.043133043119899 0)
(1.0015724215977 -0.046288500163085 0)
(1.0022343272392 -0.048714423905666 0)
(1.0038315569911 -0.052459068062035 0)
(0.99999896381434 -0.00049603251343895 0)
(0.99997739417554 -0.0015306697128504 0)
(0.99993519902733 -0.0025439270208358 0)
(0.99987052146208 -0.0035503994454711 0)
(0.999783120159 -0.0045709526349052 0)
(0.99967428143145 -0.0056229218694231 0)
(0.99954601013216 -0.0067178446198109 0)
(0.99940098936123 -0.0078620964595957 0)
(0.99924170008026 -0.0090595882423324 0)
(0.99907117180695 -0.010315012806138 0)
(0.9988919802901 -0.011630564056553 0)
(0.99870803023605 -0.013007746000696 0)
(0.99852143388131 -0.014443474633586 0)
(0.9983369423895 -0.015940286509885 0)
(0.99815552627472 -0.017497329912326 0)
(0.99798495827995 -0.019128995919754 0)
(0.9978246653999 -0.020836020623126 0)
(0.99768937473538 -0.022645621680785 0)
(0.99757364827503 -0.024543431729118 0)
(0.99750539252019 -0.026573550398087 0)
(0.99746458236908 -0.028682838546808 0)
(0.99750587040367 -0.03096118671451 0)
(0.99757304267169 -0.033277026370121 0)
(0.99777959825514 -0.03583591220526 0)
(0.99798638771978 -0.038334322264585 0)
(0.99843678557691 -0.041236556301767 0)
(0.99881054508292 -0.043856992772851 0)
(0.99962924472511 -0.047210960559063 0)
(1.0002022475947 -0.049804661840095 0)
(1.0016604683084 -0.053774577843936 0)
(0.99999883475447 -0.00048240533447329 0)
(0.99997236999162 -0.001491606289869 0)
(0.99992059976642 -0.0024774657602251 0)
(0.99984130831637 -0.0034555683641643 0)
(0.99973412582282 -0.0044482454554674 0)
(0.99960030598368 -0.0054738753373258 0)
(0.99944199614749 -0.0065451287483493 0)
(0.99926177397703 -0.0076681098757522 0)
(0.99906181364909 -0.0088468474119431 0)
(0.99884481149643 -0.010086460491697 0)
(0.99861362928558 -0.011389686208444 0)
(0.9983718083636 -0.012757880716707 0)
(0.99812186796748 -0.014188439374138 0)
(0.99786773475667 -0.015683538054779 0)
(0.9976114110423 -0.017243737648943 0)
(0.99735886239784 -0.018883048250543 0)
(0.99711178323192 -0.02060532318491 0)
(0.99688120178722 -0.02243647256589 0)
(0.99666684854991 -0.024367259893395 0)
(0.99648930008826 -0.026437970621438 0)
(0.99633938932961 -0.028603272783907 0)
(0.99625728873338 -0.030946348569855 0)
(0.99620776598453 -0.033344958741973 0)
(0.996277055133 -0.036000745605669 0)
(0.99636327828784 -0.038607521537771 0)
(0.99666283931537 -0.041659004399778 0)
(0.99691838522546 -0.044396769994524 0)
(0.99757730599951 -0.04800907063986 0)
(0.99807392782128 -0.050680742791235 0)
(0.99936142912575 -0.05512392080327 0)
(0.99999865645364 -0.00046801500462711 0)
(0.99996731201979 -0.0014501417996046 0)
(0.9999064077409 -0.0024070680451067 0)
(0.9998129425855 -0.0033552664676623 0)
(0.9996864014596 -0.0043183465387019 0)
(0.99952770468259 -0.0053155614328296 0)
(0.99933955317528 -0.006361054199854 0)
(0.99912495874041 -0.0074608283985584 0)
(0.99888514600784 -0.0086190801596597 0)
(0.99862215542307 -0.0098406922679428 0)
(0.99833913119311 -0.011128777666586 0)
(0.9980392926618 -0.012484711047917 0)
(0.99772548580141 -0.013906557839918 0)
(0.99740092259173 -0.015396158834527 0)
(0.99706865662705 -0.016956022002981 0)