/*--------------------------------*- C++ -*----------------------------------*\
| =========                 |                                                 |
| \\      /  F ield         | OpenFOAM: The Open Source CFD Toolbox           |
|  \\    /   O peration     | Version:  2112                                  |
|   \\  /    A nd           | Website:  www.openfoam.com                      |
|    \\/     M anipulation  |                                                 |
\*---------------------------------------------------------------------------*/
FoamFile
{
    version     2.0;
    format      ascii;
    arch        "LSB;label=32;scalar=64";
    class       volScalarField;
    location    "5.2";
    object      p;
}
// * * * * * * * * * * * * * * * * * * * * * * * * * * * * * * * * * * * * * //

dimensions      [0 2 -2 0 0 0 0];

internalField   nonuniform List<scalar> 
22000
(
0.079598590094247
0.079569488665981
0.079509011053117
0.079415992333288
0.079289768777464
0.07913018862662
0.078937436254458
0.078711758515652
0.078453272924901
0.078161962828363
0.077837769253146
0.077480663958923
0.077090661486889
0.076667810928632
0.076212175621883
0.075723841109062
0.075202900140564
0.074649486232531
0.074063734349954
0.073445853015645
0.072796023220713
0.072114561351066
0.071401678265058
0.07065784909473
0.069883261833563
0.069078658763234
0.068244077698748
0.067380756943291
0.066488253725876
0.065568743811377
0.080146427111866
0.080116165351344
0.080054576635592
0.079960589813518
0.07983341841568
0.079672787028727
0.079478824115363
0.07925176279902
0.07899172356497
0.078698693661371
0.078372605643217
0.078013408983646
0.077621083572592
0.077195641082695
0.076737100533102
0.076245507949046
0.075720905894875
0.075163392525527
0.074573045234783
0.073950048365201
0.073294508483965
0.072606736050007
0.0718868304689
0.071135294509649
0.07035214101516
0.069538204013769
0.06869322168704
0.067818606328167
0.066913270189249
0.065979485488972
0.081144156692795
0.081113488768924
0.081051152051134
0.080956205312447
0.080827971849785
0.080666196197598
0.080470953774841
0.080242404881832
0.079980609551072
0.079685509226034
0.079356990012514
0.078994949010203
0.078599302496819
0.078169997847683
0.077706979038062
0.077210225509307
0.076679693041075
0.076115417023127
0.075517369775563
0.074885689869741
0.074220347957611
0.073521648890155
0.072789498577689
0.072024473255586
0.071226287755585
0.070395996452117
0.06953282505132
0.068638637696452
0.067711218892177
0.066753304569136
0.082517744366071
0.082486907545878
0.082424223523739
0.082328778173721
0.082199917319067
0.082037371925944
0.08184117035451
0.081611411529123
0.081348090900463
0.081051085828309
0.080720212055035
0.080355291285292
0.079956151305343
0.079522650183204
0.079054625306053
0.078551960184981
0.078014484227064
0.077442140710238
0.076834747952209
0.076192375391472
0.075514792933458
0.074802291423639
0.074054491252737
0.073272063934406
0.072454285721929
0.071602501210084
0.070715175725098
0.069794747012832
0.068837341046676
0.067846228996137
0.084200906116524
0.084170073403561
0.08410737401941
0.084011891400499
0.083882969751065
0.083720316581548
0.083523909715644
0.083293779978889
0.083029843568006
0.08273189281231
0.082399647707444
0.082032828112534
0.081631143759447
0.081194333938299
0.080722094204903
0.080214179598758
0.07967025034957
0.079090124070747
0.078473411078752
0.077820081372296
0.077129633186046
0.076402326192708
0.075637398614393
0.074835627071444
0.073995708332572
0.073119329211595
0.072203972436678
0.07125277063507
0.070259783629784
0.069228948677297
0.086133852293473
0.086103244470442
0.086040985589543
0.085946151256691
0.08581807781477
0.085656440289904
0.085461150549482
0.08523215237899
0.084969262909655
0.084672169406617
0.084340473127246
0.083973766898847
0.083571612724541
0.083133600924239
0.082659249005565
0.082148149723862
0.081599749752399
0.081013705461033
0.080389363544514
0.079726561928361
0.079024455120888
0.078283250026982
0.07750170515009
0.076680702398412
0.07581822330259
0.074916332957173
0.073971333454189
0.072987130511125
0.071955355621915
0.070880612867379
0.088262606669908
0.08823252895129
0.088171331424975
0.088078082924631
0.087952105356907
0.087793030080136
0.087600689702076
0.087374925095246
0.08711543551656
0.086821783212115
0.086493429492425
0.086129817440261
0.085730333418187
0.085294389548235
0.08482128968058
0.08431043055936
0.083761000612916
0.083172457795524
0.082543827695706
0.081874779015788
0.081164046863988
0.080411755311376
0.079616081903057
0.078778000345044
0.077894643690146
0.076968463951948
0.075994403786163
0.074977159330229
0.073905631482404
0.072784959414085
0.090538196728018
0.090509025330747
0.090449651202891
0.090359140859001
0.090236798541473
0.090082201854415
0.089895091528432
0.089675192956832
0.089422073419416
0.089135153348158
0.088813733010486
0.088457082839391
0.088064388115187
0.087634856190116
0.087167543241255
0.086661616565333
0.086115962531452
0.08552980309288
0.084901786778099
0.08423137370714
0.083516805753354
0.082758088402472
0.08195271838683
0.081101734545356
0.080201288792895
0.079254195064413
0.078253874565744
0.077205749790073
0.0760957669448
0.07492931269677
0.092916132837985
0.092888299265919
0.092831622238751
0.092745174328667
0.092628243255462
0.092480345581695
0.092301118688588
0.09209016103089
0.091846896500097
0.091570590562037
0.091260366487112
0.090915303254284
0.090534361204157
0.090116517680077
0.089660552788671
0.089165374651631
0.088629528955626
0.088051963036317
0.087430897982108
0.086765539295416
0.086053568848155
0.085294826026419
0.084486032028434
0.08362825383904
0.082716529728824
0.081754000416408
0.080732421903485
0.07965781449548
0.07851304063306
0.0773032250975
0.0953561514543
0.095330125978138
0.095277099491234
0.095196161722238
0.095086588495897
0.094947831330517
0.094779415165176
0.094580802161854
0.094351265010503
0.09408990556626
0.093795659424735
0.093467400092541
0.093103847332085
0.0927037272401
0.092265519825662
0.091787843822466
0.09126887771226
0.090707250870379
0.090100724018127
0.089448187382094
0.088746721269816
0.087995930955441
0.087191685152913
0.086335040353212
0.085419753035316
0.084449313878701
0.083413560139163
0.082319041282796
0.081145452840333
0.079896898251975
0.097822109694168
0.09779838386775
0.097750005711455
0.097676095289101
0.097575923729371
0.097448876885725
0.097294362022243
0.097111699360844
0.096900006932362
0.096658219296909
0.096385080125266
0.096079248417503
0.09573919507671
0.095363378999368
0.094949969081338
0.094497265306562
0.094003063546817
0.093465631578677
0.092882255254635
0.092251443061756
0.091569649062582
0.090836170338927
0.090045947554416
0.089200017603131
0.088290622046827
0.087321746826081
0.086280938954336
0.085175194912751
0.083981191060016
0.082700596071621
0.10028195770575
0.10026102580544
0.10021830093049
0.10015294838059
0.10006424406275
0.099951510798034
0.099814037034677
0.099651000115731
0.099461364795228
0.099243900561645
0.098997161050226
0.09871959000754
0.098409407337877
0.09806479951041
0.097683617107926
0.097263831222699
0.096802837016093
0.096298520382383
0.095747661749272
0.095148357745283
0.094496402837598
0.09379070606764
0.093025292005928
0.092200978276954
0.091308587341062
0.090352341187692
0.089317380399972
0.088211275476516
0.087007037461715
0.085703225805748
0.10270772744366
0.10269006908473
0.10265397430973
0.10259866957684
0.10252344654515
0.1024275708719
0.1023102156351
0.10217041967831
0.10200700128989
0.10181857330642
0.10160350780923
0.10136004066845
0.10108614656068
0.10077974377612
0.10043836593275
0.10005965527957
0.09964059982858
0.099178697515821
0.098670199772431
0.098112777189063
0.097501524666448
0.096834937329442
0.096106070866114
0.095315435099669
0.094452457941176
0.093521292911103
0.092504936090456
0.091410945391468
0.090208797802575
0.088893036262059
0.10507550059955
0.10506156406044
0.10503301487916
0.10498915809324
0.10492931311289
0.10485269621177
0.10475837251306
0.10464525237066
0.10451202040411
0.10435714736519
0.10417883887234
0.1039751379646
0.10374378837818
0.10348245394591
0.10318836311134
0.10285883996071
0.10249047149275
0.10208037239719
0.1016242617496
0.10111937575822
0.10056008956782
0.099944462131287
0.099264543668965
0.098520490366276
0.097700278956956
0.096807854961773
0.095824195953057
0.094756133208253
0.093570610858656
0.092255957448347
0.10736532919969
0.10735551742106
0.10733533798742
0.10730419469894
0.10726144908999
0.10720627739832
0.10713764680985
0.10705435359755
0.10695496695336
0.10683783602706
0.10670102152554
0.10654239602539
0.10635949519776
0.10614975130581
0.10591011026646
0.10563759878461
0.10532842275551
0.10497932806551
0.10458551620019
0.1041437917552
0.10364781581233
0.10309518991803
0.10247695274774
0.10179285622688
0.10102942482213
0.10019021080914
0.099254407561774
0.098227243439702
0.097074495756101
0.095775723609177
0.1095610970822
0.10955575586865
0.1095446603168
0.10952733328083
0.10950318850483
0.10947137231263
0.10943077002518
0.10938008367941
0.1093177899557
0.10924214180638
0.10915108220266
0.10904234192175
0.10891327899393
0.10876112513499
0.10858257636271
0.10837439274378
0.10813243180308
0.10785309715539
0.10753110329844
0.10716283897995
0.10674127976475
0.10626355726808
0.10571973564884
0.10510906520658
0.10441676015033
0.10364561216292
0.10277361076598
0.1018031704397
0.10070050049055
0.099434076269603
0.11165030560654
0.11164972510974
0.11164830488149
0.11164570082405
0.11164139986625
0.11163453419383
0.11162392128691
0.11160818997221
0.11158575175912
0.11155479347841
0.11151317243179
0.11145851171956
0.11138802892858
0.11129879352641
0.11118729307725
0.1110500608378
0.11088264977279
0.1106811591545
0.11043986188158
0.11015475873536
0.1098181951461
0.10942681514364
0.10896982867464
0.10844577730493
0.10783895882002
0.10715066490215
0.10635876888744
0.10546146872633
0.10442650977716
0.10321084028056
0.11362382277092
0.11362821606626
0.11363691955099
0.1136497488798
0.11366627016723
0.11368561064409
0.11370653977097
0.11372763956645
0.11374728626081
0.11376363299745
0.11377448696711
0.11377740174882
0.11376949717621
0.1137477249606
0.11370841363599
0.11364791728089
0.113561538508
0.11344511853845
0.11329254905244
0.11309947575074
0.11285770062853
0.11256335000334
0.11220498651326
0.11178016837693
0.11127284167805
0.11068193092616
0.10998624234611
0.10917875554214
0.10822901418781
0.10708282605965
0.1154755732492
0.11548508923403
0.11550423302371
0.1155329936218
0.11557102882704
0.11561747509198
0.11567107529857
0.11573039122024
0.11579379520438
0.11585944084246
0.11592512279973
0.11598836495613
0.11604623586838
0.11609561730943
0.11613273470282
0.11615381506002
0.11615397578966
0.11612885121888
0.11607203031174
0.11597883573315
0.11584064029385
0.11565301160814
0.1154041073391
0.11509027795092
0.11469563127084
0.11421624686569
0.11363233687864
0.11293130476485
0.11208445965534
0.11102551147468
0.11720220565272
0.11721693082045
0.11724669749058
0.11729168379006
0.11735164682076
0.11742574422707
0.11751271611443
0.11761113420545
0.11771940174252
0.11783570724108
0.11795787072928
0.11808342603347
0.11820944113725
0.11833277677178
0.11844961832581
0.11855611689439
0.11864728148806
0.11871858703393
0.11876341791096
0.11877680366578
0.11874981708699
0.11867745016133
0.11854762021394
0.11835542412253
0.1180853151675
0.11773072020029
0.1172733292809
0.1166951158933
0.11596941958522
0.11501508532489
0.11880271347837
0.11882268391301
0.11886314802772
0.11892447818311
0.11900653388908
0.1191085028881
0.11922913927531
0.11936705504826
0.11952073009062
0.1196884259658
0.11986802390974
0.12005710379317
0.12025278724645
0.12045195955393
0.12065083863802
0.12084554626166
0.12103108165518
0.1212027964012
0.12135400015577
0.12147944219623
0.12157004831004
0.12162025400861
0.12161780402825
0.12155670296375
0.12142140850693
0.12120342756814
0.12088536210781
0.12044525503629
0.11985874689952
0.11902766309526
0.12027805954736
0.12030326468704
0.12035440829418
0.12043204577314
0.12053614828594
0.12066596330888
0.12082025564055
0.12099766920698
0.12119680990898
0.12141606124462
0.12165340319767
0.12190649722185
0.12217257762324
0.12244859219343
0.12273086829268
0.12301552525294
0.12329767397485
0.12357254975653
0.12383358214106
0.12407519622679
0.12428843693306
0.12446712368271
0.12459904106492
0.12467726984222
0.1246858347165
0.1246150937416
0.12444660260369
0.12415738012468
0.12372374151597
0.12303660541126
0.12163085142346
0.12166119765075
0.12172286693062
0.12181658903316
0.12194244757789
0.12209980438526
0.12228751793385
0.12250423308621
0.12274865795563
0.12301930605092
0.12331429694165
0.12363142202085
0.123968086378
0.12432133549602
0.12468769154536
0.12506328453396
0.1254434657177
0.12582330126496
0.12619657784933
0.12655719634384
0.12689679772782
0.12720813891826
0.12747989827369
0.12770357429898
0.12786387184583
0.12794948587739
0.12793987545042
0.12781191719469
0.1275347367928
0.12701044051074
0.12286514950343
0.12290039666461
0.12297217296023
0.12308143769852
0.12322842462153
0.12341243050905
0.12363257189413
0.12388783241579
0.12417704783133
0.12449864486904
0.12485084991241
0.12523166643901
0.1256387161049
0.12606915208117
0.12651975071869
0.12698668050329
0.1274656562092
0.12795154897775
0.12843873450568
0.12892027142084
0.12938895634059
0.12983543314494
0.13025089936314
0.13062258228654
0.13094028891621
0.13118562042211
0.13134500524297
0.13138463795243
0.13126594002254
0.13089458471325
0.12398665970048
0.12402635307479
0.12410733306647
0.12423105947757
0.12439802334281
0.12460714255999
0.12485715890492
0.12514762668333
0.12547862605501
0.12584832397609
0.12625484171529
0.12669641900069
0.12717097139048
0.12767580540702
0.12820794120717
0.12876367457465
0.12933911529572
0.12992908967106
0.13052870280943
0.13113039704157
0.13172847368451
0.13231116717204
0.1328732559301
0.13339497460927
0.13387585040269
0.13428062478981
0.13462232151524
0.13483140036662
0.1349164747015
0.13465141856504
0.064679422108391
0.063825474122228
0.06294919989468
0.062051966814351
0.061135292861971
0.060200411253558
0.059248204717521
0.058279349910608
0.05729452188407
0.056294529059173
0.055280321605314
0.054252926571459
0.053213396054038
0.052162799041156
0.051102235234075
0.050032845568424
0.048955811988586
0.047872349776052
0.046783697261783
0.04569110526176
0.044595831234896
0.043499139283623
0.042402315284556
0.041306685776206
0.040213585928343
0.039123797936063
0.038038029480243
0.036957458147385
0.035883397278557
0.034817083364736
0.033759652150423
0.032712169736908
0.031675667776778
0.03065115996209
0.029639643138334
0.028642083088853
0.027659408919547
0.026692497292359
0.025742179543917
0.02480922333445
0.023894352866412
0.022998214672279
0.022121415040713
0.021264465605646
0.020427844819228
0.01961193018788
0.018817055201444
0.018043467990257
0.017291254313387
0.016560358531977
0.065080014668158
0.064219007028026
0.06333240769113
0.062423842419417
0.061496089204397
0.06055051463992
0.059587492820845
0.058607103827322
0.057609674856491
0.056595950938628
0.055566945309114
0.054523726420354
0.053467331244278
0.052398793856725
0.051319194233928
0.050229677340147
0.049131447071796
0.048025753748793
0.046913882369581
0.045797142688316
0.044676854144875
0.043554324233871
0.042430802792218
0.041307425318514
0.040185212965534
0.039065929061633
0.037951423951296
0.036842914574034
0.035741446492471
0.03464813383926
0.033564160462929
0.032490731006367
0.031429035155195
0.030380225942662
0.029345414349548
0.028325661458015
0.027321980909811
0.026335329250714
0.025366612088945
0.024416667503659
0.023486275193276
0.022576141214202
0.021686904503142
0.020819147442288
0.019973350592989
0.019150015841728
0.018349437600166
0.017572192058602
0.016818451712669
0.016089641759029
0.065832427997107
0.064947975305469
0.064030585230343
0.063088925140921
0.062128663301016
0.061151641303495
0.060157392473048
0.059145007466311
0.058114324142386
0.057066135762181
0.056001717278371
0.054922323377735
0.053829041438908
0.05272290009446
0.051604991070037
0.050476505419682
0.049338714295953
0.048192941648217
0.047040547088321
0.045882916418502
0.044721456118102
0.043557590546341
0.042392772811608
0.041228513399957
0.040066420071542
0.038907864969865
0.037754122931602
0.036606564557474
0.03546654204862
0.034335370399035
0.033214345904272
0.032104746588773
0.031007820352869
0.029924769333897
0.028856748730982
0.027804861286404
0.026770161144011
0.025753638861974
0.024756226396183
0.023778782308576
0.022822095637786
0.021886890494032
0.020973782194292
0.020083389635241
0.019216094778362
0.018372540133728
0.017552810172836
0.01675807907138
0.015988526070806
0.015248547263759
0.066893388805078
0.065970165265992
0.065003539528179
0.064010245218703
0.063000261419361
0.061975935732531
0.060935407061945
0.059876270975546
0.058797669442218
0.057700485429433
0.056586366513296
0.055456804356666
0.0543129126088
0.053155661798196
0.05198611074045
0.050805467272214
0.049615049726386
0.048416241882415
0.047210472047906
0.045999208656938
0.044783958257325
0.043566258873614
0.04234766623528
0.04112973108063
0.039913964855411
0.038701870427759
0.037494951879867
0.036294680509795
0.035102497742928
0.03391981022198
0.032747989281078
0.031588368702474
0.03044224681056
0.029310880097392
0.028195485671104
0.027097226798929
0.026017217837263
0.024956504071961
0.023916073855564
0.02289684002518
0.021899637849276
0.020925252500296
0.019974314731334
0.0190475542965
0.018145298807872
0.01726848789262
0.016417050700961
0.015593153670998
0.014797186993071
0.01403811061532
0.06823657082001
0.067262100649
0.066230528916425
0.065169726322979
0.064095339157961
0.063010140996015
0.061910253516198
0.060791266424731
0.059651444146184
0.058491822002615
0.057314540458881
0.056121383636805
0.05491347650204
0.053691695846253
0.052457045488235
0.051210745095023
0.049954163126267
0.048688746046113
0.047415990042832
0.046137438727475
0.04485468308206
0.043569352919803
0.04228310125092
0.040997587409856
0.039714465745223
0.038435372375712
0.037161913986321
0.035895658871536
0.034638133919054
0.033390822084483
0.032155165568588
0.030932564123111
0.029724381394879
0.02853193556815
0.027356506092397
0.026199313126332
0.025061533855016
0.023944271202739
0.022848578985113
0.021775427855724
0.020725710234236
0.019700280029093
0.018699792981114
0.017725104958211
0.016776475474565
0.015855182959398
0.014960953552563
0.014097187586184
0.013264657072955
0.012478515056656
0.069843393458853
0.068806826126095
0.067695898467935
0.066552942408089
0.065400675314287
0.064242163253606
0.063070843625234
0.061879794513033
0.060666256996125
0.059431517057258
0.058178350073423
0.056908897971936
0.055624286814802
0.054325268543199
0.05301277503672
0.051688036002617
0.050352472738076
0.049007595987214
0.047654970434455
0.046296217665553
0.044933021902912
0.043567122922399
0.04220029754234
0.040834336335884
0.039471022140973
0.038112108638515
0.036759310933899
0.03541429430617
0.034078673442684
0.032754010682563
0.031441822870547
0.030143578150064
0.028860707232898
0.027594590262965
0.026346576232781
0.025117952251868
0.023909977388649
0.022723825112563
0.021560638207481
0.020421458035052
0.01930726555202
0.018218996385653
0.017157365467166
0.01612337085837
0.015117241622135
0.014140649291138
0.013193176177662
0.012279693340909
0.01140160244782
0.010581634020113
0.071699660649025
0.070591489308162
0.069387864980677
0.068149204170591
0.06690674672573
0.065663648011649
0.064409930976312
0.063135638737599
0.061836852950852
0.060515220966763
0.059174299160419
0.05781664793289
0.056443376443579
0.055055074951627
0.053652583799796
0.052237140662354
0.05081022321801
0.049373408688459
0.047928331606121
0.046476695157504
0.045020284677938
0.043560961550639
0.042100639734896
0.040641254513759
0.039184733796617
0.037732967977682
0.036287798198155
0.034851002642009
0.033424296402158
0.032009329129128
0.030607697192424
0.029220939643722
0.027850560872539
0.026498012047551
0.025164727246872
0.023852071319224
0.022561402613311
0.021293973261473
0.02005103858865
0.018833716152949
0.017643104879037
0.016480219836017
0.015345871158036
0.014241190086124
0.013166417996302
0.012123615557549
0.011112285130788
0.010138927581351
0.0092059560817153
0.0083453362973122
0.073794744183164
0.072606702880832
0.071298045672281
0.069951199404494
0.068607367488155
0.067269468724573
0.065923306729864
0.064555377140901
0.063160516816383
0.061740878421351
0.060300943954232
0.058843738669437
0.057370330944692
0.055881115500849
0.054376825113482
0.052858704454811
0.051328292312024
0.049787237246681
0.048237246911715
0.046680109499662
0.045117718376556
0.043552068660239
0.041985228471524
0.040419298600256
0.038856375549067
0.037298508935349
0.03574768854162
0.034205824595345
0.032674747610865
0.031156204683942
0.029651880760022
0.028163393731985
0.02669233292607
0.025240228398241
0.023808612165497
0.02239893378896
0.021012672704647
0.019651170740895
0.018315831814762
0.01700785850044
0.015728518685199
0.014478908484113
0.013260003924227
0.012073057847202
0.010918421467873
0.0097985308262544
0.0087129727505285
0.0076700138381134
0.006673613016855
0.0057665390665005
0.076120225433549
0.074845066818462
0.073419781896436
0.071953166709405
0.0704978866641
0.069056132991291
0.067608491899183
0.066137329588334
0.064636218427721
0.063108051159293
0.061558406434376
0.059990794096087
0.058406194049045
0.056804772750515
0.055187150590571
0.053554585107378
0.051908682740335
0.050251168480873
0.048583826680047
0.046908534524373
0.045227301009727
0.043542267832714
0.04185567459307
0.040169806792721
0.038486948667225
0.03680933421187
0.035139126898544
0.033478391182939
0.031829094492624
0.030193101682017
0.028572207532969
0.026968126882077
0.025382554513225
0.023817115926268
0.022273467710336
0.020753164182848
0.019257844774266
0.017788959290462
0.01634811201953
0.014936599714415
0.013555930571659
0.012207271759438
0.010891863526701
0.0096110371623615
0.0083653976330767
0.007157673190646
0.0059877774919142
0.0048657441059831
0.0037977950052175
0.00283899196476
0.078668657052612
0.077300583535954
0.07574801382091
0.074150788798704
0.072574809212476
0.071021092777497
0.06946385777345
0.067880643983895
0.066263756449195
0.064617124277346
0.062947618406572
0.061259239355009
0.05955280799917
0.057828217762217
0.056085974134567
0.054327360981872
0.05255406297044
0.050767886609663
0.048970695709884
0.047164460407714
0.045351313452102
0.043533556433739
0.041713619143095
0.039893996484709
0.038077193529607
0.036265655394281
0.034461748377319
0.032667722882757
0.030885715350148
0.029117736269912
0.027365717115799
0.025631492405961
0.023916889695315
0.022223652673265
0.020553597403717
0.01890840601267
0.017289924060196
0.01569972769774
0.014139687394196
0.012611199729799
0.011116108455766
0.0096556280350874
0.0082314044302665
0.0068447702098627
0.0054968036424433
0.0041903690256439
0.0029260830085582
0.0017156178452028
0.00056844712715665
-0.00044666013172565
0.08143207710392
0.079966420049181
0.078277116909315
0.076539756025401
0.074835131393315
0.073162475794698
0.071488391202762
0.069784986106219
0.068043430991092
0.066269012267935
0.064470049573358
0.062651022350638
0.060812524880016
0.058954131498194
0.057076226660613
0.055180135606445
0.053267634062521
0.051340613087209
0.049401015570072
0.047450908266208
0.045492558181635
0.043528443385205
0.041561206405635
0.039593575731795
0.037628306937602
0.035668089224303
0.033715528619329
0.031773098592796
0.029843141970218
0.027927848779922
0.026029321390694
0.024149544350017
0.022290514995612
0.020454127069741
0.018642402113782
0.01685718237169
0.015100582274856
0.013374333264637
0.011680661876775
0.010021074721032
0.0083978845562935
0.0068123181451948
0.0052666324701546
0.0037620396666726
0.0023004190013362
0.00088451041584957
-0.00048380418989927
-0.0017915503059294
-0.003024667893048
-0.0040995807665234
0.084402402576047
0.082835958154076
0.081001061213315
0.079114984364398
0.077275185546175
0.075477867576874
0.073680581157105
0.071849629444918
0.069975310059139
0.068064546501698
0.066127213031346
0.064168244204199
0.06218793730904
0.060185500499699
0.058161196775582
0.056116413764012
0.054053030984558
0.051973023651116
0.049878411001277
0.047771359018696
0.045654278784464
0.043529842122062
0.041400932110256
0.039270554061861
0.037141737672166
0.035017410555869
0.032900482520673
0.030793713093182
0.028699694404498
0.026620834281449
0.02455945005721
0.022517719106934
0.020497858590639
0.018501956885477
0.01653230152827
0.014590942524331
0.012680342884984
0.010802432453078
0.0089599061844723
0.0071543993236972
0.0053888647917409
0.0036644940043703
0.0019844341049313
0.00034959350562334
-0.0012368825369053
-0.0027727858443677
-0.0042541750569249
-0.0056673997098334
-0.0069920415819535
-0.0081290553100898
0.087569357045619
0.085899360168269
0.083911483808642
0.081870528410698
0.07989103268248
0.077964415195236
0.076038257412409
0.074073192905365
0.072058931339163
0.07000413994362
0.067920284604566
0.065812744804901
0.06368145474897
0.061525204229364
0.059344139098388
0.057139736855609
0.054913992325851
0.05266895910752
0.050406726610338
0.048129561587982
0.045840027435371
0.043540995630067
0.041235607293294
0.038927212641204
0.03661913584755
0.034314577199583
0.032016773813444
0.029728852689242
0.027453716970507
0.025194037009218
0.022952397201502
0.020731224317829
0.01853302031897
0.016360129202856
0.014215181275648
0.012100500084707
0.010018994984115
0.0079728599862908
0.0059653916914074
0.0039983952463654
0.0020756681017311
0.00019832507218698
-0.0016292425683788
-0.0034066669778241
-0.005128900909682
-0.0067948591340187
-0.0083974271669654
-0.0099232947537742
-0.01134336407317
-0.012543114827593
0.090920191481209
0.089145200699675
0.086998779700561
0.08479866663297
0.082676815696316
0.080617841983621
0.078558240293968
0.076453349586067
0.074292866472022
0.072087339154413
0.069849744397457
0.067585809964378
0.065295035002704
0.062975768382102
0.06062805973877
0.058253500218351
0.055854202684326
0.053432287833626
0.050989906043105
0.048529426096945
0.046053571347188
0.043565452276186
0.041068462633619
0.038566183964722
0.036062346124216
0.033560726267686
0.031064823286439
0.028578048837319
0.026103720019208
0.023644874086385
0.021204432865234
0.01878514003933
0.016389863382786
0.014021283072249
0.011682469192154
0.0093761081767213
0.0071056779844633
0.0048737305168885
0.0026843234923365
0.00053951086249342
-0.0015558363340932
-0.0036006795176309
-0.0055889885015441
-0.007521172063349
-0.0093895101161099
-0.011194796316711
-0.012925260730222
-0.014569467945389
-0.016086592506374
-0.017347597013166
0.094440030710041
0.092559868982839
0.090251322723504
0.087890022810618
0.085625007302152
0.083432021298003
0.081235659381295
0.078986380157703
0.07667443404897
0.074312509246582
0.071915021749453
0.069487834787549
0.067029889795005
0.064539107071051
0.06201548862031
0.059460756060514
0.056877127368959
0.05426677123274
0.051631884779853
0.048974934917206
0.046298806078333
0.043606828374336
0.040902702183855
0.038190341304206
0.035473867443023
0.03275751940946
0.030045310411023
0.027341030415454
0.024648393974136
0.021970887912002
0.019311879119817
0.016674521362958
0.014062143305094
0.011477866889094
0.0089253240570905
0.0064076810873039
0.0039291385149328
0.0014927300028077
-0.00089652772460787
-0.0032362182388445
-0.005520135086039
-0.0077472539960795
-0.0099095147918223
-0.012008231470855
-0.014032258357554
-0.0159849628133
-0.017848236032077
-0.019614470842194
-0.02122723569402
-0.022545413793807
0.098111738363723
0.096127263289826
0.093655270853832
0.091133317355416
0.088726163955078
0.086398871605022
0.084063774691284
0.081666837092094
0.079199409178926
0.076676655914087
0.074114319316568
0.071518095491796
0.068886232857091
0.066216270498254
0.063508228768682
0.060763965990176
0.057985774854241
0.05517584224391
0.052336394912595
0.049469987124507
0.046579665210057
0.043668984260187
0.040741954082114
0.037802889655499
0.034856321477105
0.031906945458764
0.028959356328999
0.02601787790566
0.023086707810865
0.020169851341591
0.017271221549434
0.014394508575433
0.011543616919743
0.0087222519336814
0.0059347471320505
0.0031849168049019
0.00047786127685082
-0.0021827285189592
-0.0047906412257015
-0.007342941047933
-0.0098317652509014
-0.012256003179554
-0.014605142116019
-0.016881405960646
-0.019069641704502
-0.021176121182293
-0.023175113145482
-0.025064387846175
-0.026767838041243
-0.028136029319982
0.10191640154562
0.099828740249578
0.097193904566714
0.094514840163827
0.091968949140646
0.089508572824535
0.087033983712224
0.084487383887733
0.081861852899004
0.079175263426264
0.076444432100442
0.073674552099253
0.070863082324246
0.068007259720724
0.065107190383486
0.062164858219204
0.05918257851861
0.056162509343324
0.053106880394055
0.050018318979448
0.046900026957502
0.043755792500051
0.040589939403033
0.037407196122874
0.034212558345855
0.031011223196975
0.027808387987979
0.024609027221711
0.021417953736034
0.018239806101167
0.0150791519631
0.011940370944383
0.0088280738812957
0.0057467461293192
0.0027015732640953
-0.00030272552418871
-0.0032599820575074
-0.0061655461959245
-0.0090118039733363
-0.011795004604535
-0.014505302556419
-0.017141320410159
-0.019689553683549
-0.022153192711511
-0.024512363499997
-0.02677651413185
-0.028911555145593
-0.030921317479525
-0.032707261333556
-0.034114417429489
0.10583250443124
0.10364445392562
0.10084932036331
0.09801884289518
0.095339822093592
0.092749329239232
0.090135720793057
0.087438722213889
0.084654021626018
0.081802186113341
0.078900630158403
0.075953710718111
0.072958082601391
0.069910798969531
0.066812113483176
0.063664106659781
0.06046905276822
0.057229025186728
0.053946214224641
0.050623281643823
0.047263550789395
0.043871037137479
0.040450391923608
0.037006758567809
0.033545648848907
0.030072832821816
0.026594141290638
0.023115275022516
0.019641791623129
0.016179110543658
0.012732594044837
0.0093074978743939
0.0059092949817228
0.0025434987853982
-0.00078368951557574
-0.0040662752388207
-0.0072968809397936