/*--------------------------------*- C++ -*----------------------------------*\
| =========                 |                                                 |
| \\      /  F ield         | OpenFOAM: The Open Source CFD Toolbox           |
|  \\    /   O peration     | Version:  2112                                  |
|   \\  /    A nd           | Website:  www.openfoam.com                      |
|    \\/     M anipulation  |                                                 |
\*---------------------------------------------------------------------------*/
FoamFile
{
    version     2.0;
    format      ascii;
    arch        "LSB;label=32;scalar=64";
    class       volVectorField;
    location    "5.2";
    object      U;
}
// * * * * * * * * * * * * * * * * * * * * * * * * * * * * * * * * * * * * * //

dimensions      [0 1 -1 0 0 0 0];

internalField   nonuniform List<vector> 
22000
(
(1.0000011839764 -3.4295001163819e-05 0)
(1.0000357801119 -0.00010547756638907 0)
(1.0001039760239 -0.00017919533591968 0)
(1.0002081174927 -0.00025613009460916 0)
(1.0003507516651 -0.00033738388568122 0)
(1.0005344325983 -0.00042328970593124 0)
(1.0007611670241 -0.00051291402712975 0)
(1.0010321446833 -0.00060451639524569 0)
(1.0013477541456 -0.00069625135216741 0)
(1.0017077013501 -0.00078665161242884 0)
(1.0021111232699 -0.00087469710433638 0)
(1.0025567644836 -0.00095978091164276 0)
(1.0030430819021 -0.0010415001065579 0)
(1.0035684200075 -0.0011196956575119 0)
(1.0041309972669 -0.0011942153320596 0)
(1.0047291114173 -0.0012651676763076 0)
(1.0053609406391 -0.0013324276555392 0)
(1.0060248979212 -0.0013962963313907 0)
(1.0067190847907 -0.0014563766186539 0)
(1.0074420821536 -0.0015133296679186 0)
(1.008191757526 -0.001566186631341 0)
(1.0089670894244 -0.001616709319069 0)
(1.0097655898245 -0.0016626381912654 0)
(1.0105872262415 -0.001708237045392 0)
(1.011428799509 -0.0017476486612948 0)
(1.0122920237081 -0.0017906176271025 0)
(1.013171848672 -0.001822241626346 0)
(1.0140727253169 -0.0018654320625569 0)
(1.0149857048757 -0.001884106360043 0)
(1.0159199721775 -0.0019328607353968 0)
(1.0000004262452 -0.00010043048754991 0)
(1.0000343679648 -0.00030908913261769 0)
(1.0001016872963 -0.00052534890516678 0)
(1.0002046914547 -0.00075121263370841 0)
(1.0003461155179 -0.00099000255456388 0)
(1.0005286956204 -0.0012427764291288 0)
(1.000754570398 -0.0015068138742181 0)
(1.0010250450253 -0.0017769786300773 0)
(1.0013405879075 -0.00204780911385 0)
(1.0017009835467 -0.0023149553424113 0)
(1.0021054200187 -0.0025753883089785 0)
(1.0025527353698 -0.0028272963139612 0)
(1.0030414203384 -0.0030694693740568 0)
(1.0035699414124 -0.0033014154774369 0)
(1.0041364930747 -0.0035226757385261 0)
(1.0047395678431 -0.0037335578550946 0)
(1.0053771970538 -0.0039336933379647 0)
(1.0060481699572 -0.0041239370859313 0)
(1.0067501486625 -0.0043031204896664 0)
(1.0074825112639 -0.0044731351990204 0)
(1.0082420181963 -0.0046311820588555 0)
(1.0090294252575 -0.0047823412533942 0)
(1.0098396702892 -0.0049201479795571 0)
(1.0106766771975 -0.0050568879296196 0)
(1.0115315314106 -0.0051758623422947 0)
(1.0124145028584 -0.0053050141349271 0)
(1.0133083643064 -0.005401778677218 0)
(1.0142353856299 -0.0055315182343475 0)
(1.015161701217 -0.005591316689913 0)
(1.016132659293 -0.005736451255675 0)
(1.0000004523588 -0.00016259943733854 0)
(1.0000348497335 -0.00050053133635252 0)
(1.0001029057226 -0.00085092066412043 0)
(1.0002067731624 -0.0012171841188891 0)
(1.0003491062455 -0.0016048899727632 0)
(1.0005326892224 -0.0020158362286857 0)
(1.0007597821698 -0.0024456127148936 0)
(1.0010318401104 -0.0028858702468139 0)
(1.0013494519981 -0.0033277337557214 0)
(1.001712543202 -0.0037641387952595 0)
(1.0021204088344 -0.0041901563670184 0)
(1.0025720682641 -0.0046028340031305 0)
(1.00306609933 -0.0050001764595037 0)
(1.00360120914 -0.0053813725118522 0)
(1.0041755895002 -0.0057456428524331 0)
(1.0047881010009 -0.0060935036829787 0)
(1.00543656081 -0.0064242996537992 0)
(1.0061204384951 -0.0067394585977886 0)
(1.0068366788307 -0.007036939008668 0)
(1.0075860751385 -0.0073199405173348 0)
(1.008363502046 -0.0075836306129039 0)
(1.0091728483004 -0.0078366479386328 0)
(1.0100045519193 -0.0080678817243891 0)
(1.0108695249804 -0.0082982544105533 0)
(1.0117486805316 -0.008499236896969 0)
(1.0126675127828 -0.0087184394671901 0)
(1.0135867984247 -0.0088833700787944 0)
(1.0145609693414 -0.0091051889167134 0)
(1.0155104282046 -0.0092090255913109 0)
(1.0165472198564 -0.0094582948623473 0)
(1.0000004605545 -0.00022170573659736 0)
(1.0000350471488 -0.00068225472917225 0)
(1.0001033726052 -0.0011596822393769 0)
(1.0002075410527 -0.0016590472696436 0)
(1.0003502493725 -0.0021882255792995 0)
(1.0005343979338 -0.0027497381659571 0)
(1.0007623759122 -0.0033375660970394 0)
(1.0010357911995 -0.0039403578814513 0)
(1.0013553716134 -0.0045460802819311 0)
(1.0017212353773 -0.0051451808896516 0)
(1.0021328278601 -0.005730985874562 0)
(1.0025894243557 -0.0062995057485526 0)
(1.0030897224854 -0.0068480062695496 0)
(1.0036327745084 -0.0073753984776823 0)
(1.0042167701985 -0.0078805715290468 0)
(1.0048411065942 -0.0083642803680769 0)
(1.0055032983877 -0.0088255187578645 0)
(1.0062038051849 -0.0092663476079932 0)
(1.0069385485105 -0.0096837003412868 0)
(1.0077103743159 -0.010082248058885 0)
(1.0085114619854 -0.010454785716534 0)
(1.0093502222153 -0.010813933480329 0)
(1.0102106576188 -0.011143166969514 0)
(1.0111137187888 -0.011473078736154 0)
(1.0120257966254 -0.011761576025875 0)
(1.0129941401243 -0.012078397484065 0)
(1.0139482615407 -0.012317243535117 0)
(1.014988301251 -0.012640700935754 0)
(1.0159700530839 -0.01279336366362 0)
(1.0170996548048 -0.013159156211164 0)
(1.000000467837 -0.00027763571597539 0)
(1.0000350470038 -0.00085394468828143 0)
(1.0001032497376 -0.0014510926041564 0)
(1.0002071448018 -0.002076006246204 0)
(1.0003494920447 -0.002738994627316 0)
(1.0005333268995 -0.00344335585107 0)
(1.0007611836439 -0.0041815847363571 0)
(1.0010348533946 -0.0049395532840326 0)
(1.0013552403453 -0.0057023276993685 0)
(1.0017227181327 -0.006458095521835 0)
(1.0021369349768 -0.0071985926268782 0)
(1.0025975082864 -0.0079188982837019 0)
(1.0031032994324 -0.0086155802833809 0)
(1.00365382067 -0.0092873154100323 0)
(1.0042472690522 -0.0099326407172571 0)
(1.0048837534509 -0.010552592261823 0)
(1.0055604096626 -0.011145731197286 0)
(1.0062790015838 -0.011714836381142 0)
(1.0070341442627 -0.012255612021626 0)
(1.0078313657786 -0.012774421342223 0)
(1.0086593863921 -0.013261236944768 0)
(1.0095324791361 -0.013733249855495 0)
(1.0104263906531 -0.014167521525988 0)
(1.011374995154 -0.014605749922743 0)
(1.0123261240082 -0.014989993678415 0)
(1.0133548387852 -0.015415466309471 0)
(1.0143509237729 -0.01573689263085 0)
(1.0154724642146 -0.016175850231134 0)
(1.016493751325 -0.01638499474985 0)
(1.0177390374709 -0.016885257454525 0)
(1.0000004747183 -0.00033022220629769 0)
(1.0000347937244 -0.0010150567249943 0)
(1.0001023349353 -0.001724213590022 0)
(1.0002051173876 -0.0024667640297078 0)
(1.0003459644099 -0.00325560518546 0)
(1.0005280582801 -0.0040948680486887 0)
(1.000754096909 -0.0049756810693869 0)
(1.0010260872025 -0.0058813718029882 0)
(1.0013451452914 -0.0067943763992874 0)
(1.0017119582151 -0.0077008630881814 0)
(1.0021264274705 -0.0085911425710802 0)
(1.0025885989395 -0.0094594778570292 0)
(1.0030975454676 -0.010301784870804 0)
(1.0036533579428 -0.011116559820285 0)
(1.0042542577771 -0.011901967075918 0)
(1.0049012451274 -0.012659384827937 0)
(1.0055910132844 -0.013386850311461 0)
(1.0063269435806 -0.014087976294575 0)
(1.0071020848813 -0.014757001838094 0)
(1.0079252611138 -0.015402260654059 0)
(1.0087810216129 -0.016010375365049 0)
(1.0096907845254 -0.016603827905574 0)
(1.0106203500985 -0.017152078756409 0)
(1.0116192206584 -0.017709666169696 0)
(1.0126129701288 -0.018200081663591 0)
(1.0137100043767 -0.018748005610904 0)
(1.0147528016602 -0.019163065814394 0)
(1.0159682270862 -0.019734747726394 0)
(1.0170344832652 -0.020010371546942 0)
(1.0184144033747 -0.020667112589066 0)
(1.0000004790052 -0.00037924665440367 0)
(1.0000341904753 -0.0011648848651743 0)
(1.0001003458208 -0.0019778096283797 0)
(1.0002008881541 -0.0028295326634328 0)
(1.000338700528 -0.0037357060351858 0)
(1.0005171180266 -0.0047013553958694 0)
(1.0007390079958 -0.0057163732820355 0)
(1.0010066154395 -0.0067617937922685 0)
(1.0013212980079 -0.0078177163991927 0)
(1.0016841104248 -0.008868551967565 0)
(1.0020952536915 -0.0099033668694252 0)
(1.00255528594 -0.010915734814366 0)
(1.0030635397535 -0.011900974229563 0)
(1.0036208035493 -0.012857466459268 0)
(1.004225344757 -0.013782986857598 0)
(1.0048792342755 -0.014679333454686 0)
(1.0055786706903 -0.015543923460623 0)
(1.0063289631643 -0.016381346617584 0)
(1.0071213621179 -0.017184122365512 0)
(1.0079685860866 -0.017962880213934 0)
(1.0088503668571 -0.018700312585577 0)
(1.0097964884655 -0.019425015380011 0)
(1.0107612750765 -0.020097526854433 0)
(1.0118123483406 -0.020787195714188 0)
(1.0128497364034 -0.021395905546605 0)
(1.0140201000052 -0.022082266450531 0)
(1.0151120925077 -0.022604013138657 0)
(1.0164305401065 -0.02332837314377 0)
(1.0175456603063 -0.023682668324033 0)
(1.0190751450952 -0.024521209951041 0)
(1.000000479566 -0.00042443449170301 0)
(1.0000331550116 -0.0013025516543962 0)
(1.000097043668 -0.0022103521847379 0)
(1.0001939769668 -0.0031620900183232 0)
(1.0003268810779 -0.0041763411298061 0)
(1.0004992390858 -0.0052590935278438 0)
(1.0007140846426 -0.0063991478096788 0)
(1.0009739110069 -0.0075755148883092 0)
(1.0012803381473 -0.008766271653733 0)
(1.0016348371775 -0.0099543529320474 0)
(1.0020379564008 -0.011127777489375 0)
(1.0024908449683 -0.012279570155871 0)
(1.002993142496 -0.013404516479736 0)
(1.0035464477115 -0.014500958717206 0)
(1.0041491024401 -0.015566274936888 0)
(1.0048044223061 -0.016602774619368 0)
(1.0055080752795 -0.017607165079467 0)
(1.0062675915091 -0.018585174333235 0)
(1.0070722269452 -0.019527352635974 0)
(1.0079391487472 -0.020446974831606 0)
(1.0088427050094 -0.021322217251452 0)
(1.0098221620012 -0.022188673028202 0)
(1.0108190303234 -0.022996565939337 0)
(1.0119212588731 -0.023832180317562 0)
(1.013000552811 -0.024572554823241 0)
(1.014245974858 -0.025414987009335 0)
(1.0153871413652 -0.026058177533738 0)
(1.0168140533937 -0.026957353970615 0)
(1.0179802300708 -0.027404739664578 0)
(1.0196696355889 -0.028453068524164 0)
(1.0000004759839 -0.0004654878499042 0)
(1.000031624654 -0.001427115537771 0)
(1.0000922427968 -0.0024202090017565 0)
(1.0001840069646 -0.0034620603318987 0)
(1.0003098573428 -0.0045743312611383 0)
(1.0004734066946 -0.0057640416281928 0)
(1.0006778440271 -0.0070190575095102 0)
(1.0009259113058 -0.0083166538071272 0)
(1.0012195062033 -0.0096332173533477 0)
(1.0015605505064 -0.010950499819939 0)
(1.0019499853365 -0.012255686877423 0)
(1.0023896154959 -0.013541399667766 0)
(1.0028794461783 -0.014801978003467 0)
(1.0034219758149 -0.016035799183852 0)
(1.0040156642135 -0.017239863809343 0)
(1.0046652075058 -0.018417078761971 0)
(1.0053657491962 -0.019563385362675 0)
(1.0061272662827 -0.020685796905085 0)
(1.0069369255861 -0.021772707122907 0)
(1.0078167558855 -0.022840327221952 0)
(1.008735375447 -0.023861862651112 0)
(1.0097423708826 -0.024880670934817 0)
(1.010765502555 -0.025835402976958 0)
(1.0119147587434 -0.02683135624118 0)
(1.0130314593973 -0.027717491343401 0)
(1.0143502063672 -0.028734645698582 0)
(1.0155379554464 -0.029515283728992 0)
(1.0170746693535 -0.030612795892164 0)
(1.0182922290075 -0.031169767396724 0)
(1.0201467517625 -0.032457404426009 0)
(1.0000004674819 -0.00050212022069802 0)
(1.0000295546866 -0.0015376785992587 0)
(1.0000858134304 -0.0026058302221798 0)
(1.0001707167108 -0.003727182591023 0)
(1.000287179235 -0.0049266271667412 0)
(1.0004389120063 -0.0062122824382769 0)
(1.0006292380801 -0.0075712484413118 0)
(1.0008611380104 -0.0089793673766587 0)
(1.0011367954448 -0.010411684390794 0)
(1.0014586015975 -0.011849070002233 0)
(1.0018279349067 -0.013278105198059 0)
(1.0022472918074 -0.014691151093342 0)
(1.0027171162151 -0.016082214316099 0)
(1.003240844567 -0.017449766700545 0)
(1.0038171655712 -0.018790501398257 0)
(1.0044521716716 -0.020107968995034 0)
(1.0051406533638 -0.021397372581637 0)
(1.0058949872784 -0.0226670711659 0)
(1.0067005649461 -0.023903291104144 0)
(1.0075840623318 -0.025125236874744 0)
(1.0085089390349 -0.026301129952981 0)
(1.0095346544352 -0.027482241741523 0)
(1.0105759722637 -0.028595306440541 0)
(1.0117646151705 -0.029765677483427 0)
(1.0129116839233 -0.030812051267906 0)
(1.0142982676031 -0.032022958768476 0)
(1.0155272677664 -0.032957823978384 0)
(1.0171707370262 -0.034277878748758 0)
(1.0184380594982 -0.034963017494885 0)
(1.0204571122349 -0.036520189856327 0)
(1.0000004538457 -0.00053408429521031 0)
(1.0000269213481 -0.001633473235485 0)
(1.0000776866893 -0.0027658965916716 0)
(1.000153968637 -0.0039555258398146 0)
(1.0002586095892 -0.0052306002619755 0)
(1.0003953762581 -0.0066003964612655 0)
(1.0005676929997 -0.0080514230070628 0)
(1.0007787569713 -0.0095584050844131 0)
(1.0010310368548 -0.011095403159253 0)
(1.0013273952405 -0.01264271823142 0)
(1.001669688609 -0.01418655696676 0)
(1.0020611097209 -0.01571917370554 0)
(1.0025026386497 -0.017234357079461 0)
(1.0029986034874 -0.018730739311968 0)
(1.0035481374639 -0.020204797050891 0)
(1.0041585329325 -0.021660752032567 0)
(1.0048247203219 -0.023093181316143 0)
(1.0055608780463 -0.024511736893849 0)
(1.006351769641 -0.02590072717565 0)
(1.0072271703632 -0.027281980718934 0)
(1.0081479980782 -0.028619596499721 0)
(1.0091800210251 -0.029971380218012 0)
(1.0102303371755 -0.031254522945386 0)
(1.0114457177506 -0.032611266274335 0)
(1.0126154393473 -0.033833724390099 0)
(1.0140586171216 -0.035255671917679 0)
(1.0153216525794 -0.036362050386088 0)
(1.0170645150297 -0.037929838077175 0)
(1.0183766021234 -0.038762349343963 0)
(1.0205538528827 -0.040617826129837 0)
(1.0000004346359 -0.00056119331123443 0)
(1.000023721565 -0.0017139286291156 0)
(1.0000678580902 -0.0028994339556544 0)
(1.0001337563845 -0.0041456561261167 0)
(1.0002241342225 -0.0054842684686984 0)
(1.0003427629462 -0.0069257541050518 0)
(1.000493125334 -0.0084562064975016 0)
(1.0006786030107 -0.010049554230474 0)
(1.0009019352521 -0.011679231817655 0)
(1.0011664480562 -0.013325285763957 0)
(1.0014744938278 -0.014973775211805 0)
(1.0018299637104 -0.016617011683588 0)
(1.0022344272816 -0.018248671786401 0)
(1.00269309091 -0.01986764058082 0)
(1.0032056382306 -0.021470246545286 0)
(1.0037805060112 -0.023061458579949 0)
(1.0044129535349 -0.02463529057332 0)
(1.0051188558339 -0.026202765646019 0)
(1.0058826239052 -0.027746308271011 0)
(1.0067369589727 -0.029290500363131 0)
(1.0076407008331 -0.030795319005741 0)
(1.0086654052452 -0.032325214929933 0)
(1.009711914221 -0.033788201461274 0)
(1.0109395965094 -0.035342444469006 0)
(1.0121210915129 -0.036756207285905 0)
(1.0136050085316 -0.038403449746041 0)
(1.014894724424 -0.039701900191114 0)
(1.0167213570483 -0.041538636536368 0)
(1.0180729460811 -0.042538051692238 0)
(1.0203959925705 -0.044721534110437 0)
(1.0000004099346 -0.00058333549498418 0)
(1.0000199727213 -0.0017787153826375 0)
(1.0000563832454 -0.003005889672416 0)
(1.0001101970537 -0.0042967491638195 0)
(1.0001839514485 -0.0056864515993963 0)
(1.0002813645074 -0.007186720487753 0)
(1.0004059255968 -0.0087834077567916 0)
(1.0005611595477 -0.010449962802345 0)
(1.0007500482496 -0.012159548087055 0)
(1.0009763628975 -0.013892264277638 0)
(1.0012429462066 -0.015634245554912 0)
(1.0015543846253 -0.017378022487249 0)
(1.001912848277 -0.019117265758593 0)
(1.0023244261137 -0.020851208723608 0)
(1.0027893784943 -0.022576105540383 0)
(1.0033172989807 -0.024297748407407 0)
(1.0039038132508 -0.026009673851911 0)
(1.0045665325617 -0.027724333510693 0)
(1.0052895486396 -0.029422380702895 0)
(1.0061086048163 -0.031131227198696 0)
(1.0069804326325 -0.032806802275183 0)
(1.0079826163032 -0.034520461751758 0)
(1.0090097638045 -0.036170836880158 0)
(1.0102337211775 -0.037932714207532 0)
(1.011411964762 -0.039549945037431 0)
(1.0129190255863 -0.041436781204709 0)
(1.0142237553406 -0.042946277393266 0)
(1.0161135934501 -0.045068963599 0)
(1.0174984415519 -0.046259761298612 0)
(1.019946666973 -0.04879769346882 0)
(1.0000003796287 -0.00060048142541677 0)
(1.0000157117396 -0.0018277711477697 0)
(1.0000433746748 -0.0030851774390941 0)
(1.0000835206146 -0.0044086537381976 0)
(1.0001384517918 -0.0058368566052884 0)
(1.0002117718316 -0.0073827694895654 0)
(1.000306917468 -0.0090321694400093 0)
(1.0004275057713 -0.010758333416396 0)
(1.0005767218564 -0.012534492819004 0)
(1.0007587511119 -0.014341096650668 0)
(1.0009769044817 -0.016164567938515 0)
(1.0012364442146 -0.01799780822437 0)
(1.001540128611 -0.019834589600139 0)
(1.001894916766 -0.021674581698734 0)
(1.0023016412543 -0.023514048701516 0)
(1.0027710479068 -0.02535967515229 0)
(1.0032991374523 -0.027204619569878 0)
(1.0039052543007 -0.02906282911838 0)
(1.0045732290965 -0.030913285716138 0)
(1.0053417929898 -0.032786407532205 0)
(1.0061658289875 -0.034633976835413 0)
(1.0071285926614 -0.036534981936518 0)
(1.0081193264229 -0.038377562029134 0)
(1.00932114399 -0.040355647149323 0)
(1.0104785669922 -0.042184968552981 0)
(1.011989048836 -0.044325380562867 0)
(1.0132922139186 -0.046060391516358 0)
(1.0152229383791 -0.048485737770493 0)
(1.0166301857725 -0.049892577428719 0)
(1.0191757205111 -0.052804445067246 0)
(1.0000003433472 -0.00061269006136795 0)
(1.0000109926164 -0.0018613018072025 0)
(1.0000289896859 -0.0031376859411144 0)
(1.0000540553468 -0.0044819113526068 0)
(1.0000881915808 -0.0059361138975596 0)
(1.0001348278003 -0.0075145344181567 0)
(1.0001972885643 -0.0092030325136512 0)
(1.0002792257725 -0.01097500631367 0)
(1.0003839778285 -0.012804078950393 0)
(1.0005160996865 -0.014671322053453 0)
(1.0006793332248 -0.016563646284808 0)
(1.0008795785393 -0.018474462618561 0)
(1.0011201511284 -0.020397746738516 0)
(1.0014088423501 -0.022333684076733 0)
(1.0017470373677 -0.024278633715945 0)
(1.0021465857188 -0.026240239275202 0)
(1.0026038840073 -0.028211370961674 0)
(1.003139903012 -0.030207579838776 0)
(1.0037383755608 -0.032206194811405 0)
(1.0044407067047 -0.034241002557588 0)
(1.0052004834509 -0.036259279149208 0)
(1.0061058395107 -0.038348724469165 0)
(1.0070418819436 -0.040385704179536 0)
(1.0082015381813 -0.042585510024357 0)
(1.0093183169827 -0.044633342427434 0)
(1.0108104360995 -0.047037858391069 0)
(1.0120919735177 -0.049010031482263 0)
(1.0140384881275 -0.051753214415797 0)
(1.0154532592704 -0.053397732597042 0)
(1.0180620948611 -0.056697025499048 0)
(1.000000303846 -0.00062009541589652 0)
(1.0000058716382 -0.0018797740464713 0)
(1.0000134513286 -0.0031642038178848 0)
(1.0000222265492 -0.004517664418448 0)
(1.0000338795592 -0.0059856753441684 0)
(1.0000516029039 -0.0075837183118692 0)
(1.0000785434541 -0.0092978719537174 0)
(1.0001183274398 -0.011101921627995 0)
(1.0001743925876 -0.012970178510819 0)
(1.0002516087989 -0.014884587771144 0)
(1.0003540994407 -0.01683272935081 0)
(1.0004883458604 -0.018808647515535 0)
(1.0006581752432 -0.020806614405574 0)
(1.0008721446282 -0.022827403015416 0)
(1.0011321641591 -0.024867540412409 0)
(1.0014510877856 -0.026935703546666 0)
(1.0018257432486 -0.029024530559246 0)
(1.0022785320848 -0.031151332792798 0)
(1.0027932899349 -0.033291747659399 0)
(1.0034136946386 -0.035483329805264 0)
(1.004092541193 -0.037668592510741 0)
(1.0049221332866 -0.039944650190833 0)
(1.0057843795083 -0.042175695082439 0)
(1.0068807958788 -0.044599172729308 0)
(1.0079358558724 -0.04686924040023 0)
(1.0093852314509 -0.04954466442025 0)
(1.0106239195551 -0.051762634069394 0)
(1.012556491731 -0.054834539471162 0)
(1.013961994865 -0.056737204255789 0)
(1.016594245959 -0.060430396482083 0)
(1.0000002588228 -0.0006229061597512 0)
(1.0000004317611 -0.0018838780899276 0)
(0.99999692921307 -0.0031660322812497 0)
(0.9999884474592 -0.0045177460727858 0)
(0.99997626191598 -0.0059878588808499 0)
(0.99996326443385 -0.0075930658729413 0)
(0.99995236464994 -0.0093197994435787 0)
(0.99994709744828 -0.011142479749384 0)
(0.99995093786535 -0.013036369954879 0)
(0.99996900604041 -0.014984504750943 0)
(1.0000057500972 -0.016975287195344 0)
(1.0000681605566 -0.019003498867139 0)
(1.0001605218928 -0.021063785420531 0)
(1.0002920639586 -0.023157572452141 0)
(1.0004651872906 -0.025281610632036 0)
(1.0006936126153 -0.02744568831946 0)
(1.000974624004 -0.029642248198395 0)
(1.0013318261861 -0.03189050960218 0)
(1.0017493049984 -0.034164426897622 0)
(1.0022726402541 -0.036505574377781 0)
(1.0028541999261 -0.038851746917988 0)
(1.0035897863421 -0.041309676471483 0)
(1.0043591090292 -0.043731684411693 0)
(1.0053703635163 -0.046377268069491 0)
(1.0063426385146 -0.048870285823297 0)
(1.0077221867367 -0.051818883127039 0)
(1.00889736244 -0.054289305962883 0)
(1.0107808176167 -0.057693311860393 0)
(1.0121610059727 -0.059875601260823 0)
(1.0147690117439 -0.063959767769878 0)
(1.0000002094552 -0.00062139972932497 0)
(0.99999474717181 -0.0018745084985186 0)
(0.99997970425159 -0.0031446825522477 0)
(0.99995322458431 -0.0044843717643887 0)
(0.9999161620573 -0.0059455906201963 0)
(0.99987106250992 -0.0075461841463933 0)
(0.99982053852491 -0.0092730387811965 0)
(0.99976796499903 -0.011101425324681 0)
(0.99971679042982 -0.013007798447295 0)
(0.99967231157666 -0.014976475086803 0)
(0.9996392360155 -0.016996816372531 0)
(0.99962497762395 -0.019064424784745 0)
(0.99963421245676 -0.021174380750384 0)
(0.99967673378102 -0.023328808672393 0)
(0.99975537930598 -0.025524730177448 0)
(0.99988458738812 -0.027773093435556 0)
(1.0000620837105 -0.030066206058307 0)
(1.0003124589006 -0.032425262537706 0)
(1.0006201240902 -0.034822659916903 0)
(1.0010322007172 -0.037304047537343 0)
(1.001500979667 -0.039802803231823 0)
(1.002124871624 -0.042435114694439 0)
(1.0027828300966 -0.04504225600146 0)
(1.0036867370279 -0.047904627765489 0)
(1.0045556336074 -0.050618920002052 0)
(1.0058369150617 -0.053836506854679 0)
(1.0069277988123 -0.056566836786638 0)
(1.0087248913982 -0.060295344947189 0)
(1.0100624721765 -0.062780004019042 0)
(1.0125959270542 -0.067244863139967 0)
(1.0000001575482 -0.00061589637458398 0)
(0.99998889486491 -0.0018527168923513 0)
(0.99996199759154 -0.0031020276653319 0)
(0.99991704595394 -0.0044202320188594 0)
(0.99985443413896 -0.00586236261415 0)
(0.99977630613823 -0.0074473543040994 0)
(0.99968492587573 -0.009162641490912 0)
(0.99958344724623 -0.010984526007595 0)
(0.99947523379769 -0.012890854672731 0)
(0.99936568135411 -0.014867378101672 0)
(0.99925969075441 -0.016904528654738 0)
(0.99916500246764 -0.018998787504545 0)
(0.99908661367559 -0.021145727301022 0)
(0.99903475690364 -0.02334818994394 0)
(0.99901264280104 -0.025603524009241 0)
(0.99903526205002 -0.027923834097826 0)
(0.99910074411865 -0.030301391777008 0)
(0.99923442656982 -0.032759337775964 0)
(0.9994211137748 -0.035268734301697 0)
(0.99970901937794 -0.037879207948615 0)
(1.0000508544911 -0.040520193747832 0)
(1.0005463496311 -0.043316871972458 0)
(1.0010757863481 -0.046100841449995 0)
(1.0018505731457 -0.049170870654219 0)
(1.0025964597982 -0.052102730363313 0)
(1.0037507623169 -0.055578398532916 0)
(1.0047363749452 -0.05857548289961 0)
(1.0064092828414 -0.062613490554561 0)
(1.0076848909581 -0.065419413975956 0)
(1.010094689912 -0.070249011572256 0)
(1.000000103226 -0.00060675240269878 0)
(0.99998294871575 -0.0018196535259936 0)
(0.99994403747988 -0.0030400878735073 0)
(0.99988037654361 -0.0043282676895477 0)
(0.99979187782936 -0.0057420613629186 0)
(0.99968023686033 -0.0073014125445084 0)
(0.99954732435558 -0.0089943756817785 0)
(0.99939600672036 -0.010798425845728 0)
(0.99922950772128 -0.012692977680799 0)
(0.99905323728265 -0.014665328696562 0)
(0.99887223381413 -0.01670708053954 0)
(0.99869444844099 -0.018815611564183 0)
(0.99852514340559 -0.020987050785586 0)
(0.99837483369067 -0.023224926071686 0)
(0.99824706661661 -0.025527005403841 0)
(0.99815716729256 -0.027906459965225 0)
(0.99810367408958 -0.03035571484288 0)
(0.99811234503896 -0.032899682097894 0)
(0.99816851951119 -0.035508472027525 0)
(0.99832090944302 -0.038235370010426 0)
(0.99852327823118 -0.041006562564918 0)
(0.9988751832281 -0.04395542753734 0)
(0.99926045470723 -0.046905737620185 0)
(0.99988586521081 -0.050171081222545 0)
(1.0004900986257 -0.053314320845442 0)
(1.0014902102482 -0.057032682276917 0)
(1.0023492577552 -0.06029881675609 0)
(1.0038607951879 -0.064627314014408 0)
(1.0050524278053 -0.0677678521562 0)
(1.0072910788492 -0.07293728706382 0)
(1.0000000463422 -0.00059433843394014 0)
(0.99997696385229 -0.0017765168861821 0)
(0.9999260089786 -0.0029609753583394 0)
(0.99984362004257 -0.0042115510511272 0)
(0.99972920798731 -0.0055887468108778 0)
(0.99958397630768 -0.0071134479186221 0)
(0.99940938108399 -0.0087743935789826 0)
(0.99920792832752 -0.010550318473517 0)
(0.99898265212167 -0.012422348582465 0)
(0.99873887698335 -0.014379395753213 0)
(0.99848175356982 -0.01641432048037 0)
(0.99821928977253 -0.018525369280297 0)
(0.99795700803486 -0.020709318832924 0)
(0.99770546719313 -0.022970269429277 0)
(0.99746861608831 -0.025306572274788 0)
(0.99726173241067 -0.027732203071461 0)
(0.9970839567257 -0.030240114170418 0)
(0.99696087030017 -0.032856508811069 0)
(0.99687879650531 -0.03555131695634 0)
(0.99688601671918 -0.038380665462228 0)
(0.9969382265825 -0.041268747933914 0)
(0.99713328117324 -0.044355763349194 0)
(0.99736023606642 -0.047459840729835 0)
(0.99781847284995 -0.050906164234037 0)
(0.99826343435917 -0.054250796091962 0)
(0.99908507111184 -0.058195921942627 0)
(0.9997974031838 -0.061725896681428 0)
(1.0011124017856 -0.066324917968096 0)
(1.0021964659101 -0.069805101477362 0)
(1.0042168578652 -0.075279759471347 0)
(0.99999998422508 -0.00057903704867641 0)
(0.99997098506668 -0.0017245404118402 0)
(0.99990808007728 -0.0028668337608661 0)
(0.99980715681339 -0.0040731546525494 0)
(0.99966707400555 -0.0054064230590437 0)
(0.99948849238069 -0.0068884252695156 0)
(0.99927250058969 -0.008508680033195 0)
(0.99902118262871 -0.010247252952527 0)
(0.99873732840325 -0.012087100685701 0)
(0.99842605295524 -0.014018754214353 0)
(0.99809263028389 -0.016036402088257 0)
(0.9977449123724 -0.018139083722899 0)
(0.99738876746733 -0.020324349405698 0)
(0.99703443759495 -0.022596670994775 0)
(0.996686555502 -0.02495526093556 0)
(0.99635965753789 -0.027414402949607 0)
(0.99605411851973 -0.029968251274996 0)
(0.99579406368388 -0.032643256267072 0)
(0.99556812369337 -0.035410678023851 0)
(0.99542206733847 -0.038327488084734 0)
(0.99531572067263 -0.041318566971406 0)
(0.99534242525871 -0.044527857976192 0)
(0.99539888058048 -0.047771133781806 0)
(0.99567454054948 -0.0513829004386 0)
(0.99594361273555 -0.054912633729539 0)
(0.99656583568282 -0.059072516768985 0)
(0.9971131803274 -0.062848306655766 0)
(0.99820127358437 -0.067707404271977 0)
(0.99915782407198 -0.071515632832661 0)
(1.000912454097 -0.077262613617892 0)
(0.99999990909004 -0.0005612617116546 0)
(0.99996509220698 -0.0016651132968056 0)
(0.99989052365371 -0.0027600393882923 0)
(0.99977153904377 -0.0039163536256734 0)
(0.99960633599644 -0.0051992414008797 0)
(0.9993949373853 -0.0066313261331459 0)
(0.99913814222221 -0.0082028490248252 0)
(0.99883759902895 -0.0098953976830261 0)
(0.99849584394047 -0.011693998472801 0)
(0.99811767931518 -0.013590746677661 0)
(0.99770851034592 -0.015581179135555 0)
(0.99727578568891 -0.017665042147428 0)
(0.99682585062089 -0.019840793689318 0)
(0.99636817920565 -0.022113014050759 0)
(0.9959085490335 -0.024482115329539 0)
(0.99545978899851 -0.026962012331252 0)
(0.99502469242371 -0.029549085721326 0)
(0.9946237816131 -0.032268440485744 0)
(0.99425081466116 -0.035095273691111 0)
(0.99394462298349 -0.03808358599251 0)
(0.99367488348754 -0.041164377342531 0)
(0.99352253923038 -0.044478004284708 0)
(0.99340089485943 -0.047846025300625 0)
(0.99347911144119 -0.051605511772317 0)
(0.99355920155199 -0.055298988302016 0)
(0.99396270605172 -0.059665923957129 0)
(0.99432646416839 -0.063650889503605 0)
(0.99516343556827 -0.068784685346628 0)
(0.99597973908016 -0.072874980047415 0)
(0.99742501258596 -0.078908818738618 0)
(0.99999978576723 -0.00054153499133477 0)
(0.99995937227917 -0.0015999844822416 0)
(0.9998737943738 -0.0026435811183755 0)
(0.99973759387054 -0.0037451980212581 0)
(0.99954811493419 -0.0049721598479834 0)
(0.99930491349663 -0.0063482762386695 0)
(0.99900843658561 -0.007863683420441 0)
(0.99865959766302 -0.0095013485871367 0)
(0.99826082559069 -0.011248955584149 0)
(0.99781675417594 -0.013100265986632 0)
(0.99733284457555 -0.015052174669082 0)
(0.99681595852357 -0.017105084320682 0)
(0.99627297139204 -0.019258496255869 0)
(0.99571231510086 -0.021516957159314 0)
(0.99514116519978 -0.023882354002003 0)
(0.99456987964458 -0.026367590418317 0)
(0.99400458598734 -0.028972280496382 0)
(0.99346014140837 -0.031718578074471 0)
(0.99293865043781 -0.034588927414819 0)
(0.99246646695486 -0.037629602077095 0)
(0.99203198856392 -0.040786431324563 0)
(0.99168970146035 -0.04418329472952 0)
(0.99138978257496 -0.047666789545224 0)
(0.99125260524326 -0.051551838270878 0)
(0.99114176183635 -0.055399372497602 0)
(0.99130365888227 -0.05996349668546 0)
(0.99146633429442 -0.064120892463305 0)
(0.99203372448361 -0.06958030886027 0)
(0.9926810317889 -0.07383699622466 0)
(0.99380143045602 -0.080384062216774 0)
(0.99999957986776 -0.0005210984116084 0)
(0.99995354758486 -0.0015328987261259 0)
(0.99985777615911 -0.0025236834492825 0)
(0.99970543110831 -0.0035690868350996 0)
(0.99949224163109 -0.0047384088994318 0)
(0.9992183004897 -0.0060574565252099 0)
(0.99888438782332 -0.007516675401765 0)
(0.99848933951805 -0.0090985929463271 0)
(0.99803513620533 -0.01079294872895 0)
(0.99752684569336 -0.012595427354282 0)
(0.99696997558076 -0.014504724704524 0)
(0.99637078780107 -0.016521956006329 0)
(0.99573641590616 -0.018647730139552 0)
(0.99507442957834 -0.020886725505555 0)
(0.99439307158984 -0.023242666559098 0)
(0.99370057092452 -0.025727264789393 0)
(0.99300559471695 -0.028344206019 0)