/*--------------------------------*- C++ -*----------------------------------*\
| =========                 |                                                 |
| \\      /  F ield         | OpenFOAM: The Open Source CFD Toolbox           |
|  \\    /   O peration     | Version:  2112                                  |
|   \\  /    A nd           | Website:  www.openfoam.com                      |
|    \\/     M anipulation  |                                                 |
\*---------------------------------------------------------------------------*/
FoamFile
{
    version     2.0;
    format      ascii;
    arch        "LSB;label=32;scalar=64";
    class       volScalarField;
    location    "15.1";
    object      p;
}
// * * * * * * * * * * * * * * * * * * * * * * * * * * * * * * * * * * * * * //

dimensions      [0 2 -2 0 0 0 0];

internalField   nonuniform List<scalar> 
22000
(
0.053458569727163
0.053436424192584
0.053390475115707
0.053319711949435
0.053223611609735
0.053102147934865
0.052955524921921
0.052783950488341
0.052587559504721
0.052366428092673
0.05212061091409
0.051850175256104
0.051555212989138
0.051235844360744
0.050892205614576
0.050524455065425
0.050132759853912
0.049717321123926
0.049278344955149
0.04881609433204
0.048330817312602
0.047822860547746
0.047292502739563
0.046740209178006
0.046166253121005
0.045571289196278
0.044955496290949
0.044319868401044
0.043664264208736
0.042990326912519
0.053874326302172
0.053851214083767
0.053804247690099
0.053732512554874
0.053635433175131
0.053512904940695
0.053365075403444
0.053192120282215
0.052994154356559
0.052771236017098
0.052523398522749
0.052250684445609
0.051953157010219
0.051630908230565
0.051284043708858
0.050912695317689
0.050516999028069
0.050097132702692
0.049653266941765
0.049185645850005
0.048694472250758
0.048180085490705
0.04764270064772
0.047082802439226
0.046500561235853
0.045896701744026
0.045271205628951
0.044625219878584
0.043958126967537
0.043271799744617
0.054633455152475
0.054609929062654
0.054562198650129
0.054489440155774
0.054391127005795
0.054267145679903
0.054117603720293
0.053942631307188
0.053742301223771
0.053516633057013
0.053265619204576
0.052989259098844
0.052687567050103
0.052360585474254
0.05200836372884
0.051630981732441
0.051228513204541
0.050801086503686
0.050348801938216
0.049871863988072
0.049370390569552
0.048844706464703
0.048294911176259
0.047721530229765
0.047124550136068
0.046504850506844
0.045862067222559
0.045197717773719
0.044510335293784
0.043802419690294
0.055681177188961
0.05565736698108
0.05560906134366
0.055535443235644
0.055435988102328
0.055310569983521
0.05515926462517
0.054982156493534
0.054779265018296
0.054550553419254
0.054295952681534
0.054015397830818
0.053708830965434
0.05337622126996
0.053017534785374
0.052632773394653
0.052221917205231
0.051785018465735
0.051322071084881
0.050833216388165
0.050318444062341
0.049778050333283
0.049211961503454
0.048620751398971
0.048004133337518
0.047363190402709
0.046697043744055
0.046007697354956
0.045292426532006
0.044554555410993
0.056968561689988
0.056944563946429
0.056895869033394
0.056821656051641
0.056721384853199
0.056594902821824
0.056442243491728
0.056263435054012
0.056058429564885
0.055827116021711
0.055569342428927
0.055284956000915
0.054973800639269
0.05463574563911
0.054270643396327
0.053878387937854
0.053458830394793
0.053011915501052
0.052537489734193
0.052035601467184
0.051506062848622
0.050949119056713
0.050364458893919
0.04975270027421
0.049113188398218
0.048447245250744
0.047753316469225
0.047034008241453
0.046284989705729
0.045510646902533
0.058451487938105
0.058427463407385
0.058378700973798
0.058304380929396
0.058203943367818
0.058077197571141
0.057924119572825
0.057744664562633
0.057538699147388
0.057306018351155
0.057046364627125
0.056759472688571
0.056445060275402
0.056102867449105
0.05573259962834
0.055334009719602
0.054906780919099
0.05445071459574
0.053965464265972
0.053450949551091
0.052906750556728
0.052333031212195
0.051729173678727
0.051095826401877
0.050431870618252
0.049738890884939
0.049014503516419
0.048262011378593
0.047475143516791
0.046659521248883
0.060089803468168
0.060065997323663
0.060017659227291
0.059943973512875
0.059844356183356
0.059718568534232
0.05956651502754
0.059388061211422
0.059182969696301
0.058950921336452
0.058691530151667
0.058404393189688
0.058089073267934
0.05774515052641
0.057372148332967
0.056969642707695
0.056537107109293
0.05607415970545
0.055580211502132
0.055055011757313
0.054497849023682
0.05390876747263
0.053286768330264
0.052632504775497
0.05194429364119
0.051223985970384
0.050468213911125
0.049681034660254
0.04885391031434
0.047993795813854
0.061846645243409
0.06182337514756
0.061776113967972
0.061704044014957
0.061606548084099
0.061483329772136
0.061334210384101
0.061158952030734
0.060957196982845
0.060728493218045
0.060472304337623
0.060188064975409
0.059875154356956
0.059532961626026
0.059160792378934
0.058758008561623
0.058323830401541
0.057857649964627
0.057358583145692
0.056826161748051
0.056259318858346
0.055657931562825
0.055020540438759
0.054347763690773
0.053637249282611
0.052891095962114
0.052104798353541
0.051283187552436
0.050415148505525
0.049508989459766
0.063688085087755
0.063665732129749
0.063620321943455
0.063551038046774
0.06345722552669
0.063338521572062
0.063194653125066
0.0630252657882
0.06282986617231
0.062607852074674
0.062358517142993
0.062081111497663
0.061774804361483
0.061438764272417
0.061072044346019
0.060673755322456
0.060242820647664
0.059778361810988
0.059279145692362
0.058744435388359
0.05817274185638
0.057563719577463
0.056915365448455
0.056228208694924
0.05549912176333
0.054730408459387
0.05391627821384
0.053062312522683
0.052154531533299
0.051202523361974
0.065582913429682
0.065561906666883
0.065519215914473
0.065454035298853
0.065365672217964
0.065253690720679
0.065117713806415
0.064957260467589
0.064771690518956
0.064560237881004
0.064322008481063
0.064056047470449
0.063761291282918
0.063436662328594
0.063080930381264
0.062692920403571
0.062271217775932
0.06181462936919
0.061321520123112
0.060790830847217
0.060220583542919
0.0596101478601
0.05895689307567
0.058261191793059
0.057519035703487
0.056732865185231
0.055895465355532
0.055013096220014
0.054068652325407
0.053072819566606
0.067502599977953
0.067483400313598
0.067444362491711
0.067384703991419
0.06730369852452
0.067200833456659
0.06707562078395
0.066927445316618
0.066755512329254
0.066558883346536
0.066336466067418
0.066087086689263
0.065809429549293
0.065502148587418
0.065163704849494
0.064792608318171
0.064387070437668
0.063945542649468
0.063465938772252
0.062946823835232
0.062385666748909
0.061781485327282
0.061130939956076
0.060434166038335
0.059686173554552
0.058889444972364
0.058035215487139
0.05713029948319
0.05615424013943
0.055118519380355
0.06942136194419
0.069404445516986
0.069370026530359
0.069317360878186
0.069245695338935
0.069154440167991
0.06904299308631
0.068910601587497
0.068756313847058
0.068579015916341
0.068377412550969
0.068150103918018
0.067895512411933
0.067612008957864
0.067297725808641
0.066950834646956
0.066569144928402
0.066150718318701
0.065692975457931
0.065194055347815
0.064650815596158
0.064061853263861
0.06342304459976
0.062734196366338
0.061989245443375
0.061190594990802
0.06032782308842
0.05940811992948
0.058407493947725
0.057337793947463
0.071316264020123
0.071302105354715
0.071273269074988
0.071229066269494
0.071168726276669
0.071091585166226
0.07099692732881
0.070883864901021
0.070751292298748
0.070597923463312
0.070422262837106
0.070222685098525
0.069997349062098
0.069744337708814
0.06946144621022
0.069146492676978
0.068796864660011
0.068410208251069
0.067983418987157
0.067514166670109
0.066998649023703
0.066434974803384
0.065818171790864
0.065147617682927
0.064416099490927
0.063625794829691
0.062764542117156
0.061839674978295
0.06082353441853
0.059727772053282
0.073167306439093
0.073156361629292
0.073134036212138
0.073099714757482
0.073052620778649
0.072992022309874
0.07291709583685
0.072826825553751
0.072719961758237
0.072595056716498
0.072450425010019
0.072284224881139
0.072094359318875
0.07187862818087
0.071634492213443
0.071359413681609
0.071050351198598
0.070704518062765
0.070318265751222
0.069888760388944
0.0694115063362
0.068884060743646
0.06830055429461
0.067659831263588
0.066953470817691
0.066183257841014
0.065335238367612
0.064416602618343
0.063395955461655
0.062284049560252
0.074957472162969
0.074950164315837
0.074935212021827
0.074912092666785
0.074880037535856
0.074838255818471
0.074785825735905
0.074721616463136
0.07464425010943
0.074552134858701
0.074443413740077
0.074316046514189
0.074167697924625
0.073995900116849
0.073797794046243
0.073570495224996
0.073310542167979
0.073014711690787
0.0726788075761
0.072299467406538
0.071871487010408
0.071391816984953
0.070853662087574
0.070255229882733
0.069586858995582
0.068849757470232
0.06802816669203
0.067128793580792
0.066116508810334
0.065000329221803
0.076672719037636
0.076669423947651
0.076662615446467
0.0766518824611
0.076636478555552
0.076615565913152
0.076588138034434
0.076552966973049
0.076508568434141
0.076453230789031
0.076384951447316
0.076301518326299
0.076200385305873
0.076078843025269
0.075933739326132
0.075761864796791
0.075559361066656
0.07532257933151
0.075046792305253
0.074728096783191
0.074360585532185
0.073940557110442
0.07346028725969
0.072917246655767
0.072300531573726
0.07161058165554
0.070829866317488
0.06996423092175
0.068974894939376
0.067868161577704
0.078301908563725
0.078302948021001
0.078304940641811
0.078307608578751
0.078310245003354
0.078311978080942
0.07831173291049
0.078308206655394
0.078299835533856
0.078284817957904
0.078261038311024
0.078226146956094
0.078177423662797
0.078111953939051
0.078026331309582
0.077917055676008
0.077779909869814
0.077610844780021
0.077404636663137
0.077156848173194
0.076860896713133
0.076512398501455
0.076102723027733
0.075628514030117
0.075077652570202
0.074449615565086
0.073725185160629
0.072908942409659
0.071958651575497
0.070876791463109
0.079836668115286
0.079842299771483
0.079853625010245
0.0798705216066
0.079892337025234
0.079918179067514
0.079946923940402
0.079977219784266
0.080007454558599
0.08003577133028
0.08005997993731
0.080077633724775
0.080085882930057
0.080081652895487
0.080061332924248
0.080021178369923
0.079956665639695
0.079863385607452
0.079735668932146
0.079568569628446
0.079354877333992
0.079089522009808
0.078763011969275
0.07837109899951
0.077900508571703
0.077349553778463
0.076697459073971
0.075947108698049
0.075053146041216
0.074013058130193
0.081271204409889
0.081281618631862
0.081302676376124
0.081334428341306
0.081376291148231
0.081427368464361
0.081486508620792
0.08155233861987
0.08162323194481
0.081697313768971
0.081772362662119
0.081845880779221
0.081914939798365
0.081976356646391
0.08202637567157
0.082061064924184
0.082075658837264
0.082065444749573
0.082024371670361
0.081947032705945
0.081825648642828
0.081654488337736
0.081423260758428
0.081126801569645
0.080750775282445
0.080292178356931
0.079728814487305
0.079061397858212
0.078241834857489
0.077261436970117
0.082602072476619
0.082617395574435
0.082648450086422
0.082695478615344
0.082757983103693
0.082835077660883
0.082925603603586
0.083028195055205
0.083141247670519
0.083262909946389
0.083390976257044
0.083522945048112
0.083655863947795
0.083786498106227
0.083911014256208
0.084025359241926
0.084124600798357
0.084203793996184
0.084256583273312
0.084277172233485
0.08425728047049
0.084190574804825
0.08406601065388
0.083877546582693
0.083609841155456
0.083258619921506
0.082800371829322
0.082233391593561
0.081506866741253
0.080604651874058
0.083827900188323
0.083848201094543
0.083889395803048
0.083951931192026
0.084035406816387
0.084138966258685
0.084261467271871
0.084401571299423
0.084557725593648
0.084728149473126
0.084910711947904
0.085102957046518
0.085301963937622
0.085504503428728
0.085706739430169
0.085904564899939
0.08609296839896
0.086266848663879
0.0864196452192
0.086545257469341
0.08663499788245
0.086682029669667
0.086674578614974
0.086605851910851
0.086459327542976
0.086229823172976
0.085892233344489
0.085443482282633
0.084829139493305
0.084024804050143
0.084949089520443
0.084974381968764
0.085025756288198
0.085103866268301
0.085208410267882
0.085338574952868
0.08549327248738
0.085671221951866
0.085870931444455
0.086090719912331
0.08632858886902
0.086582179675809
0.08684866921616
0.087124896469785
0.087407111043087
0.087691212191097
0.087972216679701
0.088244922083407
0.088502703715613
0.088739205429083
0.088945510030148
0.089114344525657
0.089233349326945
0.089295140371617
0.089281722829012
0.089187470071226
0.08898417002249
0.088670261270321
0.088185242885402
0.08750257252386
0.085967546202396
0.085997727573426
0.086059175741471
0.086152776984209
0.086278317132435
0.08643498649572
0.086621751331879
0.086837469634469
0.087080784059909
0.087350138744064
0.087643659394857
0.087959092615058
0.088293781807264
0.088644697026849
0.089008268426076
0.089380449179746
0.089756425491098
0.090130914265913
0.090497443063416
0.09084932411734
0.091177770728001
0.091474838849364
0.091728203756715
0.091929516134495
0.092060092495409
0.092113465638244
0.092056927755107
0.091891168391277
0.091542543864766
0.091005342369987
0.086886611328468
0.086921269036631
0.086992305836591
0.087101011991036
0.087247255533254
0.087430143015621
0.087648534975157
0.087901408787099
0.088187769575069
0.088506398170896
0.088855485406037
0.089232813342035
0.089635944053843
0.090062033121941
0.090507746106681
0.090969089898844
0.091441523931966
0.091919654808127
0.092397423433369
0.092867620656167
0.09332218893439
0.093751784746089
0.094145531780673
0.094492085124209
0.094775760239274
0.094984835593328
0.095090149366301
0.095082460969624
0.094875068808209
0.09446565510296
0.087711469632677
0.087749807170695
0.087829159574924
0.087951730074467
0.088117481074796
0.088325470465653
0.088574309872728
0.088862621184815
0.089189820861664
0.089555591775387
0.089958210808459
0.090395479448136
0.090865228243487
0.091364909158747
0.091891536440163
0.092441278548529
0.093009916093926
0.093591944636133
0.094181808151962
0.09477175786678
0.095354880093061
0.095920003058667
0.096459124258632
0.096955483086815
0.097401429785963
0.097770761050658
0.098058790752627
0.098219057160333
0.098215357215134
0.097875511048753
0.042340043562592
0.041716963874777
0.041079309528812
0.04042822586355
0.039764767143756
0.039089743072088
0.038403782529869
0.037707461555297
0.037001399323502
0.036286287133438
0.035562872536714
0.03483193511826
0.034094272834032
0.033350698230636
0.032602038138183
0.031849133423962
0.031092838507828
0.030334020079961
0.029573554794049
0.028812326501912
0.028051225021226
0.027291147554859
0.026533006653893
0.025777741621331
0.025026319571542
0.024279489984765
0.023537845900223
0.022802206088142
0.022073456238397
0.021352443081416
0.020639948356968
0.019936697732368
0.019243372685196
0.018560620751292
0.01788905467553
0.017229253296168
0.016581752414896
0.015947050984901
0.015325596180946
0.014717802492819
0.014124020046838
0.01354458074918
0.012979726468145
0.012429716548722
0.011894663398868
0.011374777924683
0.010869992452656
0.010380507776672
0.0099059183143165
0.0094464014958478
0.042612113395478
0.041982030153911
0.041335385230663
0.040674846682981
0.040002068911855
0.039317795907234
0.038622326726027
0.037915949109886
0.037199146658177
0.036472588296147
0.035737036300875
0.034993280132879
0.034242118610549
0.033484366002305
0.032720859581737
0.031952462798525
0.03118006561453
0.030404582409522
0.029626947405544
0.028848109035365
0.028069023422263
0.027290645296967
0.026513908713059
0.025739698525082
0.024968827678093
0.024202338699618
0.023441446959626
0.022687073163259
0.021940030964589
0.021201129944801
0.020471184747643
0.019750998886809
0.019041346253945
0.018342964431857
0.017656544456774
0.016982737547107
0.016322140728775
0.01567531506523
0.015042753855665
0.014424927493019
0.013822212288122
0.013234996689714
0.0126635191353
0.01210811437066
0.011568842922294
0.011046059192775
0.010539570949421
0.010049958337765
0.0095767059456227
0.0091214174596653
0.043123033759387
0.042472254988389
0.041800510112948
0.04111388567879
0.040415523526754
0.03970620732869
0.038985694946341
0.038253806494924
0.03751086022787
0.036757574760706
0.035994818658659
0.035223458922339
0.034444335927646
0.03365829064056
0.032866188450346
0.032068928614333
0.031267445500526
0.030462704290403
0.029655692590881
0.028847411995893
0.028038872851486
0.027231092298175
0.026425096489771
0.025621929844342
0.024822672658121
0.024028365863821
0.023239969570526
0.022458461790041
0.021684796790075
0.020919900161014
0.020164670499818
0.019419979555734
0.018686660415791
0.017965508168738
0.017257264645747
0.016562633086893
0.015882250575407
0.015216726205061
0.014566579104939
0.013932329886127
0.013314358728795
0.012713120118291
0.012128816167208
0.011561896327998
0.011012305112874
0.010480646741274
0.009966466767165
0.0094710203910333
0.0089934649061165
0.0085379228998635
0.043845978520092
0.043161878445462
0.042450571762284
0.041723580923139
0.04098627213921
0.040239378077882
0.039481767664136
0.038712539127391
0.037931768942281
0.037140253581633
0.036339010004182
0.035528997844303
0.034711089156241
0.033886131776592
0.033054999404259
0.032218610557158
0.031377931208675
0.030533968357149
0.029687758014465
0.028840354681596
0.027992826923544
0.02714625629777
0.026301733999511
0.025460352698055
0.024623192375604
0.023791324284925
0.022965823771578
0.022147741781806
0.021338105554219
0.02053791739183
0.019748146457477
0.018969730025392
0.018203561528705
0.017450498986057
0.016711342304226
0.01598685964354
0.015277740340883
0.014584661447912
0.013908181412427
0.013248898661491
0.012607206801253
0.011983666471731
0.011378438870493
0.010792153730429
0.010224599567326
0.0096767633423873
0.0091478276411083
0.0086401029065125
0.0081523849393044
0.0076929211013246
0.044765468540512
0.044037326910709
0.043273754564371
0.042493804747492
0.041705790029876
0.040910244391703
0.040104760698941
0.03928745437488
0.038458096203264
0.037617604028336
0.036767196196377
0.035907947221734
0.035040757673823
0.034166471013806
0.033285960430725
0.032400159538609
0.031510065013748
0.03061672594436
0.029721226051074
0.02882466901552
0.027928173271306
0.027032871569087
0.026139908147236
0.025250433272854
0.024365597894456
0.023486549657015
0.022614428720268
0.021750359995426
0.02089544519958
0.020050761518428
0.019217351941455
0.018396229257443
0.017588359414557
0.01679467691675
0.016016051694323
0.015253331142849
0.014507268101627
0.013778624463741
0.01306800737247
0.012376115010399
0.011703358339288
0.011050437094391
0.010417462670811
0.0098053046112614
0.0092135595133175
0.0086437256029599
0.0080945394411333
0.0075697063670391
0.0070676029838141
0.0066019048085471
0.045871955764147
0.045090157000836
0.044262440102598
0.043417705422087
0.042567985451848
0.041713433379372
0.040849945743806
0.039974391838383
0.039086190358895
0.038186443238544
0.037276635274598
0.036357983445899
0.035431416121536
0.034497763691498
0.033557893343182
0.032612753009595
0.031663371930447
0.030710843681653
0.029756301428956
0.02880089918617
0.027845806963947
0.026892212952556
0.025941322399649
0.024994352410841
0.024052525150856
0.023117058604447
0.022189163759831
0.021270040028959
0.02036086576492
0.019462797772362
0.018576958708646
0.017704444164098
0.016846300254764
0.016003547156162
0.015177132814932
0.014367994484312
0.013576956426398
0.012804878911539
0.012052424684128
0.011320410840092
0.0106092683148
0.0099198665748888
0.0092522560656724
0.0086076036687132
0.0079852663831961
0.0073873823093649
0.0068121201389157
0.0062649461011512
0.0057437145886893
0.0052690606102785
0.047159493409609
0.046315214929589
0.045412010324014
0.044491227715337
0.04356943951229
0.04264617061137
0.041715141894553
0.040771698164654
0.039814872712811
0.038846030567991
0.037866995595563
0.036879154608063
0.035883460129661
0.034880718535811
0.033871785031749
0.032857621965993
0.031839294295129
0.030817943806251
0.029794756294262
0.028770938685816
0.027747715146606
0.026726332225994
0.025708058756381
0.024694179753658
0.02368598805855
0.022684775619479
0.021691831603025
0.02070843628072
0.019735850732688
0.018775318153933
0.017828048267181
0.016895228393868
0.015977993934498
0.015077461783571
0.014194668253345
0.013330654005033
0.012486325429822
0.011662658509109
0.010860381379562
0.010080453395273
0.009323330278654
0.0085900857284427
0.00788070011484
0.0071966975237993
0.0065371524055546
0.0059049730147426
0.0052976549487574
0.0047228047008249
0.0041777132222336
0.0036916315231472
0.048625072240549
0.04771018131591
0.046720544220825
0.045712890180999
0.044709201165368
0.043708044138327
0.042700413769809
0.041679835748034
0.040644941350112
0.039597456403201
0.03853962440035
0.037473028788906
0.036398639816067
0.035317227923751
0.034229631687657
0.033136830384515
0.032039930268558
0.030940126887317
0.029838663022218
0.028736801935453
0.027635825113787
0.026537040850249
0.025441785393424
0.024351416252479
0.023267302861409
0.02219081769649
0.021123334693999
0.020066222705273
0.019020833691383
0.017988506249054
0.016970546584977
0.015968244321805
0.014982835095831
0.014015545349224
0.013067512075763
0.012139894840228
0.011233695562606
0.010350024894631
0.0094896889069954
0.0086538136982329
0.0078428878037919
0.007058224770833
0.0062997296023695
0.0055693455587231
0.0048658268312401
0.0041929869169274
0.0035475515290802
0.0029396616070729
0.0023660321380763
0.0018662867773332
0.050267632756191
0.049274607635643
0.048187893607427
0.047082903038586
0.045987938610502
0.044900179528795
0.043807267471362
0.042700605602067
0.041578432427521
0.040442954904972
0.039296923219322
0.038142141008522
0.03697958596109
0.035809979785676
0.034634141493845
0.033453072681723
0.032267929097804
0.031079967451296
0.029890493190637
0.028700830448
0.027512322510355
0.026326344512234
0.025144305976378
0.023967643432381
0.0227978100552
0.021636265932014
0.020484477219782
0.019343909810967
0.018216015808187
0.017102239267876
0.016003993629618
0.014922682914101
0.013859655561639
0.012816262002208
0.011793754553596
0.01079342906663
0.0098163988494396
0.0088639302201007
0.0079369231166702
0.0070366970246686
0.0061637858165847
0.0053197807223396
0.0045045125181677
0.0037204076674301
0.00296587084183
0.0022457555682173
0.0015559312930487
0.00090946465584627
0.00030252691958712
-0.0002130181705122
0.052087167382834
0.051009053611735
0.049814882441465
0.048602441605221
0.047407287985885
0.046224660134008
0.04503813710599
0.04383669488259
0.042618224319536
0.041385561470455
0.040142056861494
0.038889752462015
0.037629617360406
0.036362310893806
0.035088632434317
0.033809614679309
0.032526473450178
0.031240535242924
0.02995317447441
0.028665781557822
0.027379767344232
0.026096580299942
0.024817710297126
0.023544680333925
0.022279035170303
0.021022330649915
0.019776134125231
0.018542018205524
0.017321545495199
0.016116276987014
0.014927745861633
0.013757484293923
0.012606968513037
0.011477689467192
0.010371032217525
0.0092884484500406
0.0082311830520311
0.0072006813622044
0.0061979590691342
0.0052245576596214
0.0042810770236194
0.0033694243902545
0.0024893675361307
0.0016438775959527
0.00083099347780925
5.6739420730041e-05
-0.00068393364160909
-0.0013746372687771
-0.0020196402783807
-0.002552868950241
0.05408395859475
0.052914376402416
0.051602665671522
0.050273070460594
0.048969324163058
0.047684029895354
0.046395920535943
0.04509125566458
0.043767666231525
0.042428790048421
0.041078673155478
0.039719606367898
0.03835252890114
0.03697802391187
0.035596874421333
0.034210157648657
0.032819163580336
0.031425298802922
0.030030013776533
0.028634771265099
0.027241056404978
0.025850398811564
0.0244643772052
0.023084609786679
0.021712741797804
0.020350433258418
0.018999362277874
0.017661219370165
0.016337690194892
0.015030465841753
0.013741213367268
0.012471608333612
0.011223271932195
0.00999785402935
0.0087968936627862
0.0076220201767678
0.0064746354395792
0.005356389273813
0.0042684431805391
0.0032125909283977
0.0021895317592032
0.0012015276627233
0.00024831401911642
-0.00066653415865292
-0.0015453341943038
-0.0023807732097709
-0.0031788528002668
-0.0039195002507654
-0.0046072496506056
-0.0051598039386313
0.056257884081771
0.054991073187669
0.053552141173009
0.052096233006299
0.050676115621671
0.049280888918604
0.047883592225189
0.046467526189382
0.045030213584149
0.043576291065364
0.04211058684931
0.040635637547278
0.039152326376606
0.037661149276493
0.036162881280709
0.03465866157881
0.033149871036967
0.031638008067478
0.030124606946477
0.028611209820778
0.027099384093422
0.025590749333892
0.02408698244435
0.022589807215856
0.021100981412535
0.019622279232673
0.0181554990197
0.016702459549455
0.015264982816123
0.013844905738126
0.012444046382102
0.011064240603574
0.0097072739133117
0.0083749749202392
0.0070690617913729
0.0057913652337292
0.0045434765579013
0.0033272769281939
0.0021441147698265
0.00099606608565481
-0.00011602004108172
-0.0011894916906861
-0.0022245893766075
-0.0032170803447805
-0.0041695872954534
-0.0050733845882971
-0.0059353969544918
-0.0067314743270837
-0.0074661499075227
-0.0080387225796653
0.058607829901969
0.0572387150575
0.05566342425418
0.054072763534813
0.052529266579233
0.051017469168166
0.049503820946884
0.047968490363955
0.046409121128806
0.044831572651661
0.043241527435304
0.041641743739784
0.040033016348728
0.038415749475047
0.036790727835828
0.035159176515472
0.033522586389011
0.031882559590684
0.030240722382377
0.028598704743152
0.026958166650125
0.025320828634806
0.023688475640131
0.022062944843695
0.020446117593342
0.018839894622147
0.017246211269304
0.015667028222987
0.014104314912931
0.012560067312145
0.011036272347309
0.0095349465049358
0.0080580627152927
0.0066076503193336
0.0051856355638591
0.0037940758224818
0.0024347918249899
0.0011099238478123
-0.00017893743156514
-0.0014294057741556
-0.0026404073494576
-0.0038088733297933
-0.0049349260782137
-0.0060136458571025
-0.0070478629198122
-0.0080273763875426
-0.0089599512323306
-0.0098170672585371
-0.010602882792884
-0.011196279495201
0.061131175552574
0.05965545901309
0.057935421900695
0.056202519588044
0.054529575335513
0.05289529189206
0.051258625765519
0.049596547871679
0.047907136487613
0.046197713810735
0.04447486743718
0.042741532669224
0.040998377826258
0.039245717780279
0.037484375290475
0.035715691907821
0.033941289663221
0.032162886310314
0.030382208140898
0.028600981824116
0.026820971860832
0.025044014529958
0.023272019842139
0.021506955661192
0.019750834000224
0.018005666533633
0.016273544274976
0.014556603865641
0.012856985878781
0.011176857358576
0.0095183846518793
0.0078837831990761
0.0062752381546901
0.004695007019474
0.0031452564686663
0.0016282993306262
0.00014623113008202
-0.0012985188081877
-0.0027040487840357
-0.0040676367685695
-0.0053878809999028
-0.0066612808480008
-0.007887693713625
-0.0090615118495802
-0.01018558054704
-0.011248229859556
-0.012257818729431
-0.01318134771305
-0.014021973894849
-0.014636180592396
0.063823398667364
0.062237651911613
0.060365460787329
0.058484042672584
0.056676723281971
0.054914873232646
0.053149090151607
0.051353240530334
0.049526249355222
0.047677141636478
0.045813420523514
0.043938128084315
0.042051770673412
0.040154591795539
0.03824749333927
0.036331969740763
0.03440979599014
0.032482817274763
0.030552869608929
0.028621788274985
0.026691452703196
0.024763824872068
0.022840947664781
0.020924942151642
0.019018025416463
0.017122283419196
0.015239939966048
0.013373323119013
0.01152478358086
0.00969669410011
0.0078914179606048
0.006111387047628
0.004359017034648
0.0026368255178563
0.00094725083440007
-0.00070709900522711
-0.0023238097961895
-0.0039001219895589
-0.0054337504974531
-0.0069216055742686
-0.0083618328857863
-0.009750494893152
-0.011086980693468
-0.012365028042434
-0.013587206811034
-0.014740435774341
-0.015833311151711
-0.016828302091295
-0.017726827013152
-0.018361120348542
0.066677785741494
0.064979557344996
0.062949043002594
0.060914322351195
0.058969033642917
0.057075486772568
0.055175138702941
0.053239038631509
0.051267479193349
0.049271420345641
0.047259238450782
0.045233980949017
0.043195961190442
0.041145390800785
0.039083309294591
0.037011404716888
0.03493162469125
0.032845952579347
0.030756346753769
0.028664768805302
0.026573234673473
0.024483853937143
0.022398809255942
0.020320368688708
0.0182508277018
0.016192615543145
0.014148084065264
0.012119691852489
0.010109976341144
0.0081215479254577
0.0061570062920357
0.0042190364515767
0.0023103020041969
0.00043361895459122
-0.0014082805577981
-0.0032124329918288
-0.0049760759339709
-0.0066960432866453
-0.0083696171903762
-0.0099932645577673
-0.011564571191101
-0.013079127419673
-0.014535630713597
-0.01592721716219
-0.01725578386063
-0.018506989934258
-0.019689044113169
-0.020759993022609
-0.021718326123051
-0.022370399638109
0.069685248160325
0.067873184498957
0.065679710410589
0.063488672030615
0.061403314329561
0.059374961819009
0.057335324426704
0.055253153927978
0.05313071704477
0.050981102549173
0.048813458754536
0.046630714773222
0.04443297468369
0.042220482666677
0.039994488142431
0.037756916172863
0.035509903896092
0.033255582966359
0.03099604726276
0.028733403373379
0.026469827022537
0.024207586455289
0.021949050130168
0.019696624348774
0.017452704996263
0.015219962985307
0.013001043903099
0.010798582065371
0.0086152605079056
0.0064539102543821
0.0043173860829128
0.0022086695131615
0.0001306993721574
-0.0019133608510767
-0.0039204710254527
-0.0058872282103185
-0.0078105174154285
-0.009686629717997
-0.011512424598628
-0.013283738242142
-0.014997583869421
-0.01664889402832
-0.018235536576179
-0.019749986045808
-0.021193067106065
-0.022549363578649
-0.023825927881971
-0.024976753452621
-0.025995840868905
-0.026662485889189
0.072834208345103
0.070908203951623
0.068548978900203
0.066200670687665
0.063974796831431
0.061809597121596
0.059626708450918
0.057393407770735
0.055114609654132
0.052805629643617