/*--------------------------------*- C++ -*----------------------------------*\
| =========                 |                                                 |
| \\      /  F ield         | OpenFOAM: The Open Source CFD Toolbox           |
|  \\    /   O peration     | Version:  2112                                  |
|   \\  /    A nd           | Website:  www.openfoam.com                      |
|    \\/     M anipulation  |                                                 |
\*---------------------------------------------------------------------------*/
FoamFile
{
    version     2.0;
    format      ascii;
    arch        "LSB;label=32;scalar=64";
    class       volScalarField;
    location    "5.1";
    object      p;
}
// * * * * * * * * * * * * * * * * * * * * * * * * * * * * * * * * * * * * * //

dimensions      [0 2 -2 0 0 0 0];

internalField   nonuniform List<scalar> 
22000
(
0.085121371981875
0.085091177679933
0.085028531211459
0.084932179088945
0.084801368522906
0.08463591920694
0.084436029371747
0.084201950138042
0.08393379027639
0.083631530222207
0.083295116478108
0.082924526518694
0.082519777312453
0.082080918214323
0.081608012637382
0.081101146095751
0.080560412479366
0.079985946887273
0.079377889098101
0.07873645408422
0.078061833866852
0.077354355522954
0.076614242467966
0.075841979385511
0.075037766978749
0.074202358422614
0.073335812749277
0.072439383509665
0.071512653662678
0.070557828181807
0.085689403495635
0.085658013098619
0.08559422508175
0.085496853052625
0.085365030796006
0.085198490817109
0.084997393423176
0.084761974013396
0.08449233471575
0.084188448098567
0.083850241092057
0.083477660599427
0.083070683429537
0.082629317172384
0.08215357736178
0.08164350690414
0.081099147494947
0.080520596840242
0.079907934935818
0.079261349248003
0.078580952041095
0.077867060620516
0.07711977912038
0.076339622441804
0.075526606537728
0.074681589479679
0.07380431595367
0.072896232246834
0.071956239500587
0.07098664315247
0.086723722221267
0.08669193013991
0.086627408460019
0.086529119530987
0.086396314025588
0.08622873610536
0.086026483024535
0.085789712890918
0.085518466118418
0.085212666718009
0.084872190452538
0.084496926463604
0.084086782836588
0.083641697568302
0.083161605878774
0.082646478089294
0.082096263380858
0.081510990276315
0.080890627839453
0.080235312150075
0.079545012590479
0.078820038207416
0.078060287627879
0.077266354764318
0.076437935112742
0.075576127238534
0.074680128244872
0.073751869393086
0.07278905418231
0.07179447063666
0.088147255407732
0.088115328552281
0.088050530937901
0.087951853038825
0.087818565183937
0.087650394237435
0.087447388162491
0.087209641537236
0.086937126766588
0.086629698683715
0.08628715634208
0.085909306229944
0.085495960472254
0.085046959648493
0.084562124255054
0.084041319607156
0.083484359876609
0.082891171930427
0.082261561846734
0.081595587757664
0.080893006979875
0.080154109788731
0.079378490151836
0.078566845157237
0.077718397067164
0.076834563822328
0.075913725907926
0.074958437666653
0.073964637474526
0.072935682983806
0.089890859157614
0.08985899011402
0.089794285208595
0.089695737935149
0.089562616909236
0.089394620562888
0.089191741042158
0.088953999774475
0.088681284256775
0.08837335741535
0.088029914581298
0.087650651308342
0.087235252114505
0.086783428253202
0.086294847668382
0.085769235181984
0.085206224034811
0.084605602301681
0.083966955185354
0.08329022889124
0.082574892960763
0.081821199963054
0.081028335289398
0.080197111746889
0.079326123302219
0.078417168601694
0.07746756647254
0.076480634385477
0.075450099821983
0.074380041160015
0.091892068603965
0.091860502497955
0.091796395040692
0.091698739684561
0.091566798359185
0.091400230488933
0.091198954554146
0.09096289831271
0.090691843413354
0.090385439423201
0.090043253179366
0.089664842042413
0.089249731009212
0.088797469266824
0.088307533219376
0.087779470261119
0.087212684999551
0.086606787539553
0.085961082583237
0.085275368095945
0.084548748287296
0.083781413899757
0.082972034733794
0.082121541362645
0.081227746813885
0.080292876770452
0.079312963216387
0.078292184403243
0.077221650521302
0.076106182439453
0.094094423245907
0.094063495525407
0.094000667958896
0.093904934909742
0.093775544359293
0.09361210535965
0.093414448866385
0.093182391870673
0.092915590339148
0.092613559693727
0.09227571558174
0.091901452222463
0.091490104879947
0.09104102903691
0.090553471302181
0.090026764753886
0.089460037013785
0.088852679068086
0.088203652881335
0.087512566709473
0.086778077229923
0.086000280190286
0.08517721790107
0.084309927586371
0.083395288947604
0.082435975670953
0.081426522838126
0.080372009500063
0.079260577099294
0.07809767771858
0.096446655599304
0.096416776994881
0.096356061110311
0.096263508413466
0.096138349056585
0.095980130860939
0.095788584585176
0.095563403485113
0.095304102551559
0.095010044921031
0.094680473200943
0.094314594761175
0.093911527929746
0.093470405167379
0.092990206473615
0.092470014359922
0.091908632315807
0.091305191248735
0.090658249802053
0.089967183065124
0.089230119716669
0.088447020776301
0.087615189893727
0.086735744632149
0.085804475699461
0.084824492592165
0.083788630805247
0.082702834338102
0.081551996909088
0.080341935888779
0.098902170955496
0.098873810304642
0.098816154819797
0.098728220946072
0.09860922205882
0.098458636529501
0.098276083215706
0.098061120419437
0.097813110535224
0.097531250466297
0.097214592815242
0.096862138182055
0.096472763473403
0.096045352235178
0.095578587428517
0.095071268648628
0.094521833066999
0.093929109950579
0.093291199405751
0.092607192586595
0.091874618149503
0.091093247288343
0.090259544094229
0.089374663707653
0.088433156421736
0.087438547246902
0.08638177188915
0.085269556340971
0.084083335769852
0.08282878456773
0.10141879911392
0.10139246509898
0.10133890046344
0.10125715076511
0.10114641783066
0.10100610590408
0.1008357125408
0.10063465233854
0.10040212790467
0.10013716140117
0.099838604633878
0.099505237187022
0.099135678219623
0.098728540284151
0.098282184541645
0.097795096798827
0.097265318396952
0.096691330697141
0.096070739758398
0.095402284875157
0.094682855459983
0.093911944663868
0.093085113063683
0.092203481572934
0.091260197810584
0.090259226173693
0.089189264638832
0.088057892475468
0.086842760297373
0.085548831452786
0.10395870407192
0.10393492614508
0.10388652596252
0.10381259362876
0.10371232776481
0.10358505785448
0.10343015493523
0.10324688511506
0.1030342889512
0.10279121124379
0.10251629935174
0.10220810356305
0.10186497756466
0.10148524726152
0.10106694075807
0.10060820005744
0.1001066563814
0.099560395846229
0.098966517562355
0.098323330323158
0.097627070703017
0.096876848103862
0.096067275819286
0.09519937726725
0.094264684587627
0.093267779344392
0.092194537913515
0.091053661832379
0.08981868449316
0.088492480439004
0.10648837137422
0.10646767939477
0.10642551983399
0.10636104466483
0.10627346027945
0.10616202447655
0.10602598115252
0.10586444827893
0.10567630752356
0.10546023040622
0.10521466349689
0.10493792870183
0.10462811401295
0.10428325488018
0.10390104099406
0.10347926036149
0.10301511671212
0.10250628141107
0.10194931370046
0.10134206605906
0.10068007230965
0.099961994467097
0.099181481617167
0.098339256046458
0.097425375199835
0.096444608957581
0.095380131260788
0.094241753594252
0.092997722288721
0.091649264717858
0.10897860941694
0.10896151486876
0.10892663634641
0.10887320585032
0.10880045054026
0.10870756345801
0.10859366578993
0.10845773344612
0.10829849834204
0.10811446975642
0.10790390468045
0.1076649068072
0.10739530717083
0.10709285784451
0.10675491450244
0.10637891357053
0.10596162729484
0.10550030721261
0.10499095078488
0.1044309421755
0.10381506794039
0.10314152376722
0.10240291477183
0.10159960983094
0.1007201464208
0.099769222382282
0.098727589436277
0.097605397126993
0.096365769737928
0.095007698366065
0.11140452407237
0.1113915016759
0.11136487281477
0.11132396938959
0.11126805268405
0.1111962603027
0.1111076000182
0.11100091792285
0.11087481167292
0.11072764603919
0.11055750706522
0.11036229910483
0.11013961462517
0.10988694034159
0.10960131415774
0.10927983599822
0.10891885696197
0.10851521758022
0.1080643524437
0.10756317275854
0.10700569862548
0.10638963947225
0.10570651534705
0.1049562990098
0.10412591391085
0.10321992734209
0.10221658624698
0.10112594824413
0.099906806642955
0.098553398624696
0.11374543870541
0.11373691165641
0.11371939697085
0.11369234938774
0.11365508089642
0.11360668378309
0.11354606432824
0.11347195612381
0.11338284412069
0.11327697278797
0.11315228297952
0.11300650684297
0.11283702624001
0.1126410909802
0.11241544949471
0.11215689215425
0.11186137462627
0.11152534740265
0.11114370246174
0.11071288642996
0.11022616260035
0.10968073722107
0.10906703984177
0.10838460629398
0.10761870147446
0.10677367866761
0.10582525776007
0.10478288629507
0.10360227647338
0.10226964005292
0.11598474687435
0.11598107584269
0.11597341870794
0.11596137235191
0.11594431097518
0.11592129674719
0.11589115323925
0.11585252350836
0.11580380582391
0.11574315376325
0.11566839475474
0.11557712276066
0.11546654529389
0.11533371287352
0.11517512395329
0.11498729769557
0.11476583482427
0.11450683063975
0.11420467311583
0.11385536947727
0.11345145938301
0.11298964760614
0.11245929891931
0.11185945768268
0.11117379874316
0.11040622938218
0.10953030445618
0.1085537980009
0.10743128173923
0.10613748322698
0.11810968961627
0.11811116810105
0.11811396824259
0.1181178488918
0.1181222699765
0.11812627734439
0.11812862728003
0.11812789737805
0.11812243057081
0.11811032366685
0.11808932752064
0.11805693779339
0.11801023115015
0.11794610429417
0.11786085490171
0.11775077937095
0.11761117653043
0.11743783465966
0.11722469227908
0.11696735986296
0.11665770955176
0.11629196047192
0.11585849694221
0.11535575236092
0.11476610446766
0.11409237526338
0.1133071379274
0.11241452330515
0.11137033029799
0.11013630102061
0.12011106607163
0.12011790712615
0.12013161464065
0.12015213294408
0.12017901472147
0.12021130296167
0.12024771034664
0.12028677781618
0.12032682571786
0.12036593048003
0.12040180670044
0.12043189575507
0.12045319278231
0.12046249284813
0.12045595049097
0.12042969638577
0.12037879137817
0.12029877508183
0.12018320594167
0.12002735052847
0.11982249761467
0.11956439638932
0.11924061771408
0.11884879574836
0.11837053488335
0.11780663516359
0.11713017802758
0.11633974832165
0.11539364141045
0.11424122578735
0.12198292513494
0.12199527046504
0.1220201840307
0.12205781362127
0.12210781950204
0.12216925844541
0.12224082234937
0.12232104432783
0.12240825683466
0.122500553447
0.12259565414968
0.1226909913644
0.12278353160645
0.1228700239428
0.12294654413438
0.12300911969744
0.12305264879723
0.12307248743502
0.12306190138276
0.12301586694249
0.12292520416053
0.12278518882257
0.1225828156461
0.12231471326084
0.12196232805075
0.12152373330002
0.12097344032753
0.12030373287382
0.11947515316068
0.11842500531923
0.12372218296065
0.12374010381533
0.12377637660233
0.12383136871943
0.12390485831223
0.12399593114199
0.12410328402376
0.12422547407483
0.12436088281589
0.12450765780072
0.12466356614494
0.12482607653327
0.12499218358393
0.12515864648729
0.12532153274902
0.12547682778402
0.12561935380626
0.12574434470796
0.12584488391913
0.12591570462904
0.12594730344983
0.12593447367512
0.12586384644606
0.1257309460709
0.12551741060067
0.12521864059061
0.12481077217971
0.12428020294081
0.12358917929356
0.12266091402536
0.12532822446086
0.12535173798114
0.125399403905
0.12547181454753
0.12556887242117
0.1256897060856
0.12583303792266
0.12599748217457
0.12618151384118
0.12638337034573
0.1266009050167
0.12683166514024
0.12707273382294
0.12732093401922
0.12757240598488
0.12782314981541
0.12806802006142
0.12830217444452
0.12851865841897
0.12871198029671
0.12887250299633
0.12899453230566
0.12906449149592
0.12907687139304
0.12901328155149
0.12886720748123
0.12861569970751
0.12824149246323
0.12770813556688
0.12692248144975
0.12680249487457
0.12683156860895
0.12689056084623
0.12698027718506
0.12710076124128
0.12725121473588
0.12743037918619
0.12763693161071
0.12786949275474
0.1281264256185
0.12840570787016
0.12870500817813
0.12902156189743
0.12935229922683
0.1296935166433
0.13004126730369
0.13039057460206
0.13073654018247
0.1310723881187
0.13139235557565
0.1316869856193
0.13194999028921
0.13216790266602
0.13233424612225
0.13243023105178
0.13244820881258
0.13236386539231
0.13215983314651
0.13179941238955
0.1311795043848
0.12814815610782
0.12818265832316
0.12825275601037
0.12835946354477
0.12850297196993
0.12868263225736
0.12889727267955
0.12914557433016
0.12942630420743
0.12973795341559
0.13007866388302
0.13044627689549
0.13083824581511
0.13125165354722
0.1316830384391
0.13212852102585
0.13258342618273
0.13304275281107
0.13350016629414
0.13394944951013
0.13438186631447
0.13479006428552
0.13516165795306
0.13548842928265
0.13575250138596
0.13594432595561
0.1360372166696
0.13601372067924
0.13582946858079
0.13539364848996
0.1293699208719
0.12940956283234
0.12949019951801
0.12961320671322
0.12977893808487
0.12998669031231
0.13023577170559
0.130525061432
0.13085332949865
0.1312190334668
0.1316205213843
0.13205587951399
0.13252281171202
0.13301858551644
0.13354005490459
0.13408344830805
0.13464452191098
0.13521813284289
0.1357985977055
0.13637891871428
0.13695165952536
0.13750738025192
0.13803654026394
0.13852639358252
0.13896489964793
0.13933455140833
0.13961697901801
0.13978142097258
0.13977722820346
0.13951058954041
0.13047411150436
0.13051855481322
0.13060872748751
0.13074667318864
0.13093324999568
0.13116692749779
0.13144720684137
0.13177415879812
0.13214689710079
0.13256350964165
0.13302250514286
0.13352230384613
0.13406091879904
0.13463583046067
0.13524421608483
0.13588248854213
0.13654689911378
0.13723236458544
0.13793402973011
0.13864432893057
0.13935736806102
0.1400612644214
0.14075034264944
0.14140476762003
0.1420232663165
0.14257017111104
0.14305725006109
0.14341313654118
0.14364293315567
0.14350542168049
0.069634418553829
0.068747743598437
0.067837850474833
0.066906183056746
0.065954352738687
0.064983655091573
0.06399499568063
0.062989060230762
0.061966551183459
0.0609283230367
0.059875371673587
0.058808763563403
0.057729591619838
0.056638972169441
0.055538056202712
0.054428034829839
0.053310134980886
0.052185609142351
0.051055723283982
0.049921746029661
0.048784943661655
0.047646582080896
0.046507944020773
0.045370349015074
0.044235131624079
0.043103126697855
0.041975108334023
0.040852280235722
0.039735972556421
0.038627454170255
0.037527902863989
0.036438425836376
0.03536009207973
0.034293947122447
0.033241013317602
0.03220227571666
0.031178677590814
0.030171105353978
0.029180397977117
0.028207326949868
0.027252619382226
0.02631691764259
0.025400827676547
0.024504850048568
0.023629469717957
0.022775049910284
0.021941948284723
0.02113039841976
0.020340520941407
0.019572246274985
0.070052737184876
0.069158709872705
0.068238007017348
0.067294489878267
0.066331111840406
0.0653492849015
0.064349343046861
0.063331336373282
0.062295632993864
0.061243052856723
0.060174662164689
0.059091559269258
0.057994813107357
0.056885500646689
0.055764749205826
0.054633749500669
0.053493747931138
0.052346033942309
0.051191927848306
0.050032770632762
0.04886991007769
0.047704681785168
0.046538368610024
0.04537215207455
0.044207108435108
0.043044971106597
0.041887551953117
0.040736109560575
0.039591753210175
0.038455644102052
0.037329001537661
0.036213064697296
0.035109057143459
0.034018163304689
0.032941521469516
0.031880215332866
0.03083527789149
0.029807681554319
0.028798345851699
0.027808117042826
0.026837783667654
0.025888051948025
0.024959570224361
0.024052911944821
0.023168573582266
0.02230703613188
0.021468620577908
0.020653864518138
0.019862978699167
0.01909727690804
0.070838378698967
0.069919914608276
0.068967032145566
0.067988972594481
0.06699174931135
0.065977226373153
0.064944789614117
0.063893433641749
0.062823065754645
0.06173460974799
0.060629407577185
0.059508727984278
0.058373681111147
0.057225343801102
0.056064864949129
0.054893489867657
0.053712539896278
0.052523386542555
0.051327434088183
0.050126109177301
0.048920854137316
0.047713123502678
0.046504392801724
0.04529618308002
0.044090097168152
0.042887545887972
0.04168985293045
0.040498411747553
0.039314597527738
0.038139757741159
0.036975226169595
0.035822317993125
0.034682315613609
0.033556453325851
0.032445917006924
0.031351837407791
0.030275292966785
0.029217292472049
0.028178784210847
0.027160635103568
0.02616364785801
0.025188541497976
0.024235948803423
0.023306462635789
0.022400496628629
0.021518641864543
0.020661034844857
0.019828780596293
0.019022161053488
0.018245457571566
0.071946456834536
0.070987597049786
0.069983295223927
0.068951374781185
0.067902398204812
0.066838689222014
0.065758080110601
0.064657974671154
0.063537624321659
0.062398121467295
0.061241199153961
0.060068338019624
0.058880659268836
0.057679187594879
0.056465051030105
0.055239521069183
0.054003974045528
0.052759849898534
0.051508631123331
0.050251835960545
0.048991013801287
0.047727737313637
0.04646358916319
0.045200142250197
0.043938930994967
0.042681477070708
0.041429300596083
0.040183892995456
0.038946720777432
0.037719221022161
0.036502799750922
0.035298828379461
0.034108644599531
0.032933544371183
0.031774782322142
0.030633554522597
0.029511004135712
0.028408198282846
0.027326147310025
0.026265772436085
0.025227929012242
0.024213389142023
0.023222814962254
0.022256890718195
0.021316003661733
0.020401009209556
0.019511930593903
0.01865081338939
0.017818216523682
0.017022825979414
0.073349823325488
0.072337535248076
0.071265364047378
0.070162971726264
0.06904689444395
0.06791981148344
0.06677733146983
0.065614731130138
0.064430436057747
0.06322579296901
0.062003051981184
0.060763954188525
0.059509613921669
0.058240971868057
0.056959118160234
0.05566534940918
0.054361103290318
0.053047894818932
0.051727288353108
0.050400891568394
0.049070351102035
0.047737341361975
0.046403548217148
0.045070653455517
0.043740325459557
0.042414208817479
0.041093918181197
0.039781033823388
0.038477100689622
0.037183627074854
0.035902087783406
0.03463392138886
0.033380534074357
0.032143287141402
0.030923501385243
0.029722434087811
0.028541296974559
0.027381218780339
0.026243280874634
0.02512846075311
0.024037679075676
0.022971765673889
0.021931425122506
0.02091743906578
0.01993015928613
0.018970730388504
0.01803902527305
0.017138251587922
0.016269473587116
0.015447422778579
0.075029451592666
0.073952351087004
0.072797168176826
0.071608930887164
0.070411622797535
0.069208116925677
0.067991081953598
0.06675313749035
0.065491750902004
0.064208645486127
0.062906736116615
0.061588082210707
0.060253777306287
0.05890465003496
0.057541739693507
0.056166368523742
0.054780040395595
0.053384350220595
0.051980948774238
0.050571539822516
0.049157878954014
0.047741761444219
0.046325001391059
0.044909409517756
0.043496775065264
0.042088850228518
0.040687346692084
0.039293930394909
0.037910225148813
0.036537813323759
0.035178242595933
0.033833021146805
0.032503625641636
0.031191485178654
0.02989799810855
0.028624497307994
0.027372284624799
0.026142564067383
0.02493651307108
0.023755178181967
0.022599579172533
0.021470612114864
0.020369062083687
0.019295815090135
0.018251234577377
0.01723679381104
0.016252292953431
0.015302300063578
0.014388660841452
0.013533393291143
0.076971077371563
0.075819160300147
0.074566896231804
0.073278534195273
0.071987038728358
0.070695242072946
0.069392084759366
0.068066975309442
0.066716298864787
0.065342292533339
0.063948690282713
0.062537923722857
0.061111044168322
0.059668734980364
0.058211969492367
0.05674209623862
0.055260691148071
0.053769434574293
0.052270069821903
0.050764405998542
0.049254321148478
0.047741747950634
0.046228645863306
0.044716970681148
0.043208650325462
0.041705561427954
0.04020952645609
0.038722309576838
0.0372456230702
0.03578112882148
0.034330450647548
0.032895169046293
0.031476839924729
0.030076972229752
0.028697058946504
0.027338519210141
0.026002761708007
0.024691073310388
0.023404750693171
0.022144912138412
0.020912705285849
0.019709084604967
0.018534954098187
0.017391285489214
0.016278503402609
0.015198386678665
0.014150746694677
0.013141626432131
0.01217410611722
0.011279049601174
0.079164269714717
0.077928818367047
0.076566408641525
0.075164688835007
0.073767144362258
0.072376217943572
0.070976261663421
0.06955293080738
0.068101451963445
0.066624739528479
0.065127496409745
0.063612569953957
0.062080946222437
0.060533133244261
0.058970025411955
0.057392999306676
0.055803711290393
0.054203936174493
0.052595517486801
0.050980378487934
0.049360533073612
0.0477380699904
0.046115116530889
0.044493797783747
0.042876204488726
0.041264359619896
0.039660217087763
0.038065654931516
0.036482484740948
0.034912454578375
0.033357271601304
0.031818596537248
0.030298076361423
0.028797308314853
0.027317893459218
0.025861346385412
0.024429207284745
0.023022859470943
0.021643756797209
0.020293098217307
0.018972213018391
0.017682112767639
0.016423895913636
0.015198599667477
0.014006817081639
0.012850600576756
0.011729962708965
0.01065250483281
0.0096231375524366
0.0086829667842095
0.081600970872365
0.080274292037099
0.078789412549499
0.077262030366934
0.075747737293358
0.074248023901327
0.072741575559465
0.071209710275678
0.069646519337259
0.068055850112281
0.066443534874209
0.064812847979287
0.063164670149203
0.061499310868492
0.059817583374506
0.05812089931398
0.056411005922458
0.054689782573664
0.052959181575385
0.051221250058315
0.049478151980478
0.047732151441885
0.045985566156341
0.04424071348702
0.04249986855704
0.040765226675538
0.039038897699857
0.037322894565511
0.03561914867165
0.033929514170014
0.032255802765285
0.030599773952577
0.028963186918376
0.027347745861399
0.025755189190346
0.02418714999958
0.022645339961811
0.02113125796054
0.019646566869154
0.018192554485288
0.016770803213421
0.015382366186509
0.014028636284435
0.012710661752153
0.011429354382568
0.010186933404294
0.0089838774424139
0.0078292816269352
0.0067306712303331
0.0057406942987227
0.084274462134889
0.082850336022282
0.081231403658549
0.0795666515608
0.077925748145105
0.076308613413507
0.074686934246994
0.07303698471698
0.071351788330909
0.069636456854986
0.067898138066283
0.066140528164633
0.064364337680595
0.062569644484865
0.060757184964726
0.058928422276914
0.057085208892658
0.055229539298174
0.053363483450949
0.051489223145748
0.049609088304245
0.047725539852238
0.045841112337125
0.043958346774877
0.042079740106717
0.040207689389988
0.03834449101629
0.036492324294282
0.034653271178811
0.032829318744148
0.031022409529922
0.029234424935676
0.027467264741537
0.025722764913606
0.024002837279218
0.02230925825804
0.020643957426599
0.01900856910009
0.017405030323377
0.015834722932679
0.014299576369187
0.012800657822044
0.011339796383849
0.009917965162659
0.0085366195711613
0.0071979656539534
0.0059033511056133
0.0046631600592435
0.003488599385883
0.002445029122322
0.087177179735658
0.085650892994871
0.083887667333549
0.082075104569012
0.080298978634904
0.078556856080281
0.076812000183456
0.075035061092414
0.073218175721792
0.071368044451874
0.069493285839039
0.067598009830582
0.065682691603437
0.063747136215517
0.061792004663422
0.059818833263141
0.057829597519839
0.055826415703066
0.053811482794582
0.051787128012904
0.049755866881631
0.047720382602224
0.04568345726647
0.043647889975156
0.041616437822857
0.039591736352621
0.03757630624752
0.035572530453076
0.03358267891983
0.031608905417174
0.029653317685343
0.02771795077723
0.02580488374476
0.023916118652787
0.022053788696119
0.020219849083022
0.018416510957048
0.016645575865451
0.014909343121809
0.013209300253136
0.01154785285307
0.0099260460822629
0.0083463453850325
0.0068095200764205
0.0053178966441546
0.003873382420166
0.0024787810413795
0.0011453417645864
-0.00011064024545339
-0.001210287583406
0.090302149678568
0.088669912531778
0.086752400366895
0.08478279738468
0.082864504603981
0.080991115606051
0.079116043519155
0.077204012605024
0.075246534732276
0.073252183625942
0.071231175656285
0.069188016449638
0.067122872925563
0.065035236838535
0.062925705051546
0.060795915672969
0.058647984923832
0.056484161592052
0.054306772908915
0.052118309589674
0.049921494948437
0.047719262920116
0.045514678184489
0.043310835996892
0.041110798000062
0.038917468154244
0.036733643858997
0.03456196230256
0.032404928515168
0.030264907075421
0.028144217631197
0.026045093684015
0.023969845957976
0.021920690518965
0.019900044932013
0.017910094475747
0.015953411896101
0.01403201238794
0.012148665238492
0.010304985787025
0.0085040157504948
0.0067467347490981
0.0050365073258168
0.0033737153868771
0.0017620105669463
0.00020256869865246
-0.0012995364932658
-0.0027329140000246
-0.0040743506551686
-0.0052311182262853
0.093638990026193
0.091897623075472
0.089818072038246
0.087684908870949
0.085619270708469
0.083609237540325
0.081597651515907
0.079543320812345
0.077437269425649
0.07529009651012
0.073113741749687
0.070913099244615
0.068687938344016
0.066437392591548
0.064162017723931
0.061863590542742
0.05954438431563
0.057206780496067
0.05485324357494
0.052486439485635
0.050109320092552
0.047725098480049
0.045337158425874
0.042948944713139
0.04056392472891
0.038185212553084
0.035815959134373
0.033459149210585
0.031117584258168
0.028793888757253
0.02649065176782
0.024210364927993
0.02195563782814
0.019728965086502
0.017533128336756
0.015370612445145
0.013244449108917
0.011156936516276
0.0091114394633854
0.0071097486794368
0.0051557259801509
0.0032502574499313
0.0013979255120605
-0.00040149588612775
-0.0021424262803804
-0.0038250278354633
-0.0054408308588848
-0.0069794302752968
-0.0084083356079267
-0.0096213412481321
0.097174972884796
0.095323018130943
0.093075436868302
0.090774189255555
0.088558250889386
0.0864078867698
0.084254510688607
0.082051510773739
0.079789843199833
0.077482230869976
0.075142328365546
0.072775348915731
0.07038058525035
0.06795679505374
0.065504527489987
0.063025732224365
0.060522850891804
0.057998397515822
0.055454978654627
0.052895449408611
0.05032301427166
0.047741195684976
0.04515372715232
0.042564500302938
0.039977209362182
0.037395536661945
0.034822940689956
0.032262807879976
0.029718329002355
0.027192458220709
0.024688121228052
0.022208143863127
0.01975552131409
0.017333112117881
0.014944162286394
0.012591549961145
0.010278887866503
0.0080088538973384
0.0057855590287041
0.0036110539813483
0.0014902224892665
-0.00057612422582267
-0.002581848459715
-0.0045279844174913
-0.0064063250910837
-0.0082191122392745
-0.0099530160337059
-0.01160026083047
-0.013116002482666
-0.014381963520294
0.10089495714368
0.098932573015781
0.096513250441323
0.094041783384132
0.09167445365846
0.089381626204906
0.087082614805782
0.084725737014502
0.082302429268596
0.079827848826469
0.077317286138385
0.074776049926276
0.072202858008416
0.069596124604936
0.066956446807975
0.064285972465727
0.061587312614781
0.058863108604443
0.056116109752318
0.053349375740311
0.050566381083613
0.047770998223471
0.044967351581469
0.042159644894267
0.039352149115983
0.036549120912423
0.033754460399006
0.03097188226738
0.028205036033333
0.02545734660308
0.022732182933997
0.020032800761307
0.017362684439521
0.014725168791051
0.01212408980225
0.0095628397910235
0.0070457666859526
0.0045760519983229
0.0021587438935392
-0.00020373578027488
-0.0025052419418261
-0.0047449710602667
-0.0069148960061441
-0.009016954748566
-0.011039668464479
-0.012988000111711
-0.014842187629074
-0.016599077946126
-0.018197665299998
-0.019510530882281
0.10478122942509
0.10270998112288
0.1001178584583
0.097476585037504
0.094958625743342
0.092522889414504
0.090075979696049
0.087561349635956
0.084971636948697
0.082324853268018
0.079637742179383
0.076915392047779
0.074155852493794
0.071357262333612
0.068520335864445
0.065647435821311
0.062741330730758
0.05980477904366
0.056840672446196
0.053852283460212
0.050843377997025
0.04781818225184
0.044781256751334
0.041737289915383
0.0386910663846
0.035647412555629
0.032610851110791
0.029585607027164
0.026575827667547
0.023585494994892
0.020618546384108
0.017678799318884
0.014770349008863
0.011897156186195
0.0090637919695314
0.0062743334402344
0.0035340420251475
0.00084677411181678
-0.0017812536084363
-0.004347105988601
-0.0068430674110948
-0.0092682665195513
-0.011612392487402
-0.013878316074017
-0.016050786712864
-0.018137783718732
-0.020112060483208
-0.021976432592125
-0.023650123276962
-0.025000368845656
0.10881365901495
0.10663530408616
0.10387230661857
0.10106509079594
0.098399595580286
0.095822146366011
0.093226480052078
0.0905516408017
0.087792283830687
0.084969569477001
0.082101379939123
0.079192248672645
0.076239498971549
0.073241090643931
0.07019792699288
0.067112586247079
0.063987963566461
0.060826912736971
0.057632465402396
0.054408113596917
0.051157931738637
0.047886530458801
0.044598941518925
0.04130041912464
0.037996313791548
0.034692043946992
0.031392841303352
0.028103620414783
0.024829163894485
0.021574129086597
0.018343148624229
0.015140765993883
0.011971827032298
0.008841120888221
0.0057541123885106
0.0027158191452723
-0.00026741421610606
-0.0031907644095377
-0.0060466439692877
-0.0088313306362691
-0.011535226839338
-0.014157249767221
-0.01668428937856
-0.01912026139903
-0.021445476898493
-0.023671239114039
-0.025762398911973
-0.027728105094387
-0.029466400732958
-0.030839735446965
0.11296974406433
0.11068779999217
0.10775763031464
0.10479084049238
0.10198370804612
0.099267713185673
0.096523757157715
0.093687740866879
0.090757263956819
0.087756605319608
0.084704297404149
0.08160401015984
0.078452353181119
0.075247238591778
0.071989829980556
0.068682906727075
0.06532944684136
0.061932368081312
0.058494830282155
0.055020538692793
0.051513871664231
0.047979845356188
0.044423993405885
0.040852181432875
0.037270435404098
0.033684856644597
0.030101433030511
0.026525901294763
0.02296384855647
0.019420772258838
0.015902158612508
0.012413474276861
0.0089604816419497
0.0055490519096789
0.0021857191466992
-0.0011231934998069
-0.0043701132550693
-0.0075487668026619
-0.010650117894991
-0.013669058111466
-0.01659402376823
-0.019423172532888