/*--------------------------------*- C++ -*----------------------------------*\
| =========                 |                                                 |
| \\      /  F ield         | OpenFOAM: The Open Source CFD Toolbox           |
|  \\    /   O peration     | Version:  2112                                  |
|   \\  /    A nd           | Website:  www.openfoam.com                      |
|    \\/     M anipulation  |                                                 |
\*---------------------------------------------------------------------------*/
FoamFile
{
    version     2.0;
    format      ascii;
    arch        "LSB;label=32;scalar=64";
    class       volVectorField;
    location    "16.9";
    object      U;
}
// * * * * * * * * * * * * * * * * * * * * * * * * * * * * * * * * * * * * * //

dimensions      [0 1 -1 0 0 0 0];

internalField   nonuniform List<vector> 
22000
(
(1.0000010002031 -2.6438152771549e-05 0)
(1.0000274233712 -7.9667504009789e-05 0)
(1.0000784367486 -0.00013304300818828 0)
(1.0001551559302 -0.00018639797744536 0)
(1.0002580915033 -0.00023956776524471 0)
(1.0003871386245 -0.00029241933247461 0)
(1.0005419370015 -0.00034490178394986 0)
(1.0007221554402 -0.00039702576283691 0)
(1.0009275602943 -0.00044878514895375 0)
(1.0011579871857 -0.00050015839384838 0)
(1.0014132642738 -0.00055108192116176 0)
(1.0016932034889 -0.00060152896347248 0)
(1.001997558768 -0.00065142795659323 0)
(1.0023260896418 -0.00070079881094257 0)
(1.002678494117 -0.00074953851246373 0)
(1.0030545265615 -0.00079773664965395 0)
(1.0034538329129 -0.00084518741180552 0)
(1.0038761867433 -0.00089212679149385 0)
(1.0043211406151 -0.0009381067973138 0)
(1.0047885224037 -0.00098370401996318 0)
(1.005277709341 -0.0010279195529747 0)
(1.0057886658847 -0.001072129896553 0)
(1.0063204401105 -0.001114081931283 0)
(1.0068733139242 -0.0011570161291188 0)
(1.0074457109958 -0.0011958135683553 0)
(1.0080386138442 -0.0012380370200472 0)
(1.0086492605974 -0.001272003006701 0)
(1.009280122578 -0.0013152350407222 0)
(1.0099261785965 -0.0013409559672172 0)
(1.0105930061827 -0.0013895372023352 0)
(1.0000004211286 -7.7568369404173e-05 0)
(1.0000265654948 -0.00023402083579439 0)
(1.0000774004603 -0.00039111925640197 0)
(1.0001539919613 -0.00054828911297164 0)
(1.0002569148458 -0.00070499132797321 0)
(1.000386139605 -0.00086080915302478 0)
(1.0005413495 -0.0010155914064127 0)
(1.000722240203 -0.0011693769554482 0)
(1.0009285859351 -0.0013221532311903 0)
(1.001160244688 -0.0014738564022352 0)
(1.0014170478567 -0.0016242971600794 0)
(1.0016988456442 -0.0017733928407435 0)
(1.0020053841414 -0.0019209328570594 0)
(1.0023364876985 -0.0020669733088221 0)
(1.0026918145212 -0.0022112169341702 0)
(1.003071237879 -0.0023539236581895 0)
(1.0034742921405 -0.0024945017859794 0)
(1.003900985539 -0.0026336312573456 0)
(1.0043505970343 -0.0027700223461809 0)
(1.004823434564 -0.0029053276887545 0)
(1.0053182426502 -0.0030366766960756 0)
(1.0058359951038 -0.0031680060699338 0)
(1.0063743269362 -0.0032928631088601 0)
(1.0069356775247 -0.0034204959605435 0)
(1.007515375597 -0.0035362975187146 0)
(1.0081190432362 -0.0036617967994624 0)
(1.0087372186094 -0.0037637776964764 0)
(1.0093823694977 -0.0038919761262262 0)
(1.0100350984114 -0.0039705484212808 0)
(1.0107226826849 -0.0041136715609683 0)
(1.0000004300033 -0.00012593834384489 0)
(1.0000271164724 -0.00038038691983638 0)
(1.0000789724621 -0.00063619240821084 0)
(1.0001569850999 -0.000892311200284 0)
(1.000261680892 -0.0011477924642497 0)
(1.0003930321862 -0.0014019211657297 0)
(1.0005507423 -0.0016544534808197 0)
(1.0007345443537 -0.0019054750982778 0)
(1.0009442354419 -0.0021549832747546 0)
(1.001179717332 -0.0024028847598114 0)
(1.001440833394 -0.0026488719591774 0)
(1.0017274971896 -0.0028928156734019 0)
(1.0020394482087 -0.0031343710332496 0)
(1.0023766164231 -0.0033736441464115 0)
(1.0027386060171 -0.0036101485952401 0)
(1.003125483596 -0.0038443386559733 0)
(1.0035366171913 -0.0040752347424973 0)
(1.0039723950463 -0.0043039955628732 0)
(1.0044316675933 -0.0045284613686428 0)
(1.0049155242388 -0.0047514193837724 0)
(1.0054216854854 -0.0049680474050532 0)
(1.0059527914385 -0.0051849692496656 0)
(1.0065041267081 -0.0053913471339614 0)
(1.0070817656825 -0.0056027277162175 0)
(1.0076757475191 -0.0057945884901802 0)
(1.0082997032739 -0.006003085329173 0)
(1.0089323804024 -0.0061724797089062 0)
(1.009603993328 -0.0063862188675816 0)
(1.0102690366537 -0.0065171163628028 0)
(1.0109946338501 -0.0067565704428091 0)
(1.0000004194303 -0.000172282487881 0)
(1.0000275441654 -0.0005208648029833 0)
(1.00008034182 -0.00087156535906736 0)
(1.0001598138564 -0.0012228488975796 0)
(1.0002664772915 -0.0015733581252437 0)
(1.0004002987498 -0.0019220910561714 0)
(1.0005609820478 -0.0022687343830358 0)
(1.000748294139 -0.0026134528751568 0)
(1.000962058466 -0.0029562819649388 0)
(1.0012022393458 -0.0032971248494948 0)
(1.0014686995864 -0.0036355725023369 0)
(1.0017614434636 -0.0039714701695174 0)
(1.0020802028617 -0.0043043485527179 0)
(1.002425057747 -0.0046343901967571 0)
(1.0027955398018 -0.0049609254341947 0)
(1.0031919904698 -0.0052846449961096 0)
(1.0036135502467 -0.0056041704879466 0)
(1.0040611450376 -0.0059212016772558 0)
(1.0045330324994 -0.0062326489265614 0)
(1.0050314020533 -0.0065425426550511 0)
(1.0055525496049 -0.0068439539446503 0)
(1.0061014529504 -0.0071464272373395 0)
(1.0066701200732 -0.0074343914873865 0)
(1.0072697146064 -0.0077302161515553 0)
(1.0078828983834 -0.0079986843966606 0)
(1.0085345049354 -0.0082917425440313 0)
(1.0091868475904 -0.0085293741548229 0)
(1.0098949484955 -0.0088313152099686 0)
(1.0105769402286 -0.0090151058098713 0)
(1.0113555807978 -0.0093551077462541 0)
(1.0000004023163 -0.00021657109409751 0)
(1.0000278963622 -0.00065552759574462 0)
(1.0000815403942 -0.001097493177945 0)
(1.0001623696334 -0.0015403601739122 0)
(1.0002709085567 -0.0019823505800465 0)
(1.0004071265657 -0.0024221880610713 0)
(1.0005707282992 -0.0028595247232924 0)
(1.000761520819 -0.0032946504420651 0)
(1.0009793605055 -0.0037276764079598 0)
(1.0012242936201 -0.0041585340774159 0)
(1.0014962126186 -0.0045867324394092 0)
(1.0017952420131 -0.0050121164275402 0)
(1.0021211103279 -0.0054341038369005 0)
(1.0024740928612 -0.005852987057266 0)
(1.002853637565 -0.0062679202014834 0)
(1.0032604396465 -0.0066798846335002 0)
(1.0036933636672 -0.0070870888986558 0)
(1.0041540209681 -0.0074918549697047 0)
(1.0046399381262 -0.0078900860691955 0)
(1.0051546958796 -0.0082871975564204 0)
(1.0056928208348 -0.0086739527139204 0)
(1.0062622312538 -0.0090631202694561 0)
(1.0068508546628 -0.0094339435874682 0)
(1.0074762328357 -0.0098162957717668 0)
(1.0081118339827 -0.010163255872665 0)
(1.008796495261 -0.010544073901285 0)
(1.0094720490859 -0.010852192250748 0)
(1.0102244662053 -0.011246989831232 0)
(1.0109265723983 -0.011485693065727 0)
(1.0117704344639 -0.011933076260692 0)
(1.0000003774097 -0.00025870077318395 0)
(1.000028103549 -0.00078413724182254 0)
(1.0000823586308 -0.0013136539733871 0)
(1.0001642141115 -0.0018444759430382 0)
(1.0002742066749 -0.0023743778832538 0)
(1.0004123157857 -0.0029018150828579 0)
(1.0005782530931 -0.003426441494454 0)
(1.000771877535 -0.0039487241900216 0)
(1.0009930885638 -0.0044688930545894 0)
(1.0012420344356 -0.0049869437641515 0)
(1.0015186493802 -0.0055023251789792 0)
(1.0018232077911 -0.0060149107793262 0)
(1.0021554434283 -0.0065240194001284 0)
(1.0025158715913 -0.0070300924880821 0)
(1.0029038531174 -0.0075321177817535 0)
(1.0033205114403 -0.0080314305378521 0)
(1.0037644015669 -0.0085258126481112 0)
(1.0042379544381 -0.0090183019193416 0)
(1.0047378575069 -0.0095037102801139 0)
(1.005269339131 -0.009988999189732 0)
(1.0058248764923 -0.010462401655936 0)
(1.0064158461866 -0.010940252534656 0)
(1.0070254321807 -0.011396107350821 0)
(1.0076786446308 -0.011868104844858 0)
(1.0083382511425 -0.012296498073825 0)
(1.0090594376795 -0.012769527358887 0)
(1.0097601996301 -0.013151578365489 0)
(1.0105625694666 -0.013645398477793 0)
(1.0112866746327 -0.013942293355575 0)
(1.0122052777405 -0.01450569682031 0)
(1.0000003427423 -0.00029848977850805 0)
(1.0000280729992 -0.00090619220413655 0)
(1.0000825276831 -0.0015192511332277 0)
(1.0001648184853 -0.0021341214413229 0)
(1.0002754991949 -0.0027480994940607 0)
(1.0004145660948 -0.0033593759806213 0)
(1.0005817441562 -0.0039676450934291 0)
(1.0007769560782 -0.0045736079820156 0)
(1.0010001554677 -0.0051776610289361 0)
(1.0012516121343 -0.0057799043686926 0)
(1.0015313154797 -0.0063797521034195 0)
(1.0018397181869 -0.0069771390414952 0)
(1.0021765713814 -0.0075713028591306 0)
(1.0025426726855 -0.0081628785166153 0)
(1.002937300268 -0.0087507022762649 0)
(1.0033620737857 -0.0093365334853747 0)
(1.0038152211754 -0.0099177190290435 0)
(1.0043001102333 -0.010498113474093 0)
(1.0048125151833 -0.011071356672022 0)
(1.0053595270727 -0.011646124395332 0)
(1.0059313665218 -0.012207897821491 0)
(1.0065432896434 -0.012776927688637 0)
(1.0071732330839 -0.013320577989523 0)
(1.0078545425908 -0.013886024537746 0)
(1.0085381304407 -0.014399567485638 0)
(1.0092973725588 -0.014970133467573 0)
(1.0100238485635 -0.01543052548062 0)
(1.010879638733 -0.016030589290969 0)
(1.0116265000084 -0.016390089732855 0)
(1.01262677095 -0.017079357993657 0)
(1.0000002973784 -0.00033569433993509 0)
(1.0000277216707 -0.0010209866253152 0)
(1.0000817996622 -0.0017131256534071 0)
(1.000163692737 -0.0024076880835715 0)
(1.0002739777514 -0.0031014606002551 0)
(1.0004126729573 -0.0037923750783233 0)
(1.0005795218727 -0.0044802081841018 0)
(1.0007745216258 -0.0051659564529978 0)
(1.0009976911708 -0.0058502347645799 0)
(1.0012494401961 -0.0065332914656857 0)
(1.0015298276756 -0.0072145349832696 0)
(1.0018395107669 -0.0078939977396281 0)
(1.0021782731381 -0.0085708586933006 0)
(1.0025472329884 -0.0092459948109904 0)
(1.0029455979581 -0.0099181123206184 0)
(1.0033755431133 -0.010589468977875 0)
(1.0038349690427 -0.011256977288375 0)
(1.0043282771449 -0.011925411147388 0)
(1.0048502918273 -0.01258717021587 0)
(1.0054101340709 -0.013252807612693 0)
(1.0059956426631 -0.013904852875555 0)
(1.0066262644258 -0.014567802202132 0)
(1.0072743636716 -0.015202368205327 0)
(1.007982240914 -0.01586548074839 0)
(1.0086881872548 -0.016468454706889 0)
(1.0094850540462 -0.017142465977522 0)
(1.0102362768669 -0.017686417836096 0)
(1.0111467374689 -0.018400676182677 0)
(1.0119160044548 -0.018828310216295 0)
(1.0130021678024 -0.01965409201529 0)
(1.0000002401985 -0.00037003224443545 0)
(1.0000269802636 -0.0011276849468374 0)
(1.0000799761417 -0.0018938894030269 0)
(1.0001604399099 -0.0026632340386763 0)
(1.0002689729183 -0.0034319660446504 0)
(1.0004056190807 -0.004197766564039 0)
(1.0005701461856 -0.0049605395332707 0)
(1.0007626365128 -0.0057216404375598 0)
(1.0009831863845 -0.0064819574552008 0)
(1.0012323620603 -0.0072419336124717 0)
(1.0015103066441 -0.0080010046351831 0)
(1.0018179042779 -0.0087593394855263 0)
(1.0021549887365 -0.0095160859706297 0)
(1.0025230310555 -0.01027241405423 0)
(1.0029211877536 -0.011026929424406 0)
(1.0033522367571 -0.011782463580558 0)
(1.003813768827 -0.012535508321586 0)
(1.0043112907679 -0.013291855036124 0)
(1.0048386811194 -0.014042617912491 0)
(1.0054072030032 -0.014800372322532 0)
(1.0060022773451 -0.015544540824613 0)
(1.0066477303001 -0.016304144687401 0)
(1.0073102232965 -0.017032878319975 0)
(1.0080413570581 -0.017798020142721 0)
(1.008766458796 -0.018495068465689 0)
(1.0095985369317 -0.019278726480037 0)
(1.0103720671542 -0.019912120956179 0)
(1.0113361668123 -0.020748915986415 0)
(1.0121263715624 -0.021251295592019 0)
(1.0132998403863 -0.022224589796699 0)
(1.0000001705595 -0.00040120658974502 0)
(1.0000257943943 -0.0012253941522672 0)
(1.0000768964479 -0.0020600509471145 0)
(1.0001547340598 -0.0028986682003398 0)
(1.0002599320697 -0.0037369249697501 0)
(1.0003925632906 -0.0045722605347354 0)
(1.0005524256233 -0.005404751206335 0)
(1.0007396948938 -0.0062361746269707 0)
(1.0009545544544 -0.0070677478445342 0)
(1.0011977399726 -0.0079001557801134 0)
(1.0014694937123 -0.0087328976995402 0)
(1.001770945434 -0.0095663200342392 0)
(1.0021019982294 -0.010399572909641 0)
(1.0024645001108 -0.011234171097362 0)
(1.0028575823343 -0.012068658732578 0)
(1.0032846584773 -0.012906514170048 0)
(1.0037430445512 -0.013743839299904 0)
(1.0042393953149 -0.014587530558897 0)
(1.0047666892599 -0.015427404398321 0)
(1.0053383821577 -0.016278172114675 0)
(1.0059375354736 -0.017116061136038 0)
(1.0065924091806 -0.017974817735575 0)
(1.0072640377807 -0.018800892984744 0)
(1.0080133755633 -0.0196723185845 0)
(1.0087528873791 -0.020468250506816 0)
(1.0096157842594 -0.021367762899347 0)
(1.0104077215202 -0.022096993906394 0)
(1.0114221122293 -0.023064715607528 0)
(1.0122306571431 -0.023649482466701 0)
(1.0134899635141 -0.024781177640624 0)
(1.0000000885799 -0.00042893599473254 0)
(1.0000241247296 -0.001313255104537 0)
(1.0000724410583 -0.0022101646196081 0)
(1.0001463313751 -0.0031119531022882 0)
(1.0002464402694 -0.0040137045243197 0)
(1.0003728712393 -0.0049126255642646 0)
(1.0005254574502 -0.0058090092202282 0)
(1.0007044743918 -0.0067051162898831 0)
(1.0009102004042 -0.007602547450113 0)
(1.0011435482622 -0.0085022755783913 0)
(1.0014048709259 -0.0094039018412913 0)
(1.0016955551295 -0.010307991020356 0)
(1.0020155940389 -0.011213734893616 0)
(1.0023672278101 -0.012123044240699 0)
(1.0027495938176 -0.013034451459024 0)
(1.0031667568554 -0.013952149191283 0)
(1.00361580999 -0.014871901031953 0)
(1.0041045656323 -0.015801779021614 0)
(1.0046251898369 -0.016730332182433 0)
(1.0051933149377 -0.017674477084288 0)
(1.0057897969532 -0.018607246704127 0)
(1.0064472439475 -0.019567203590963 0)
(1.0071213494783 -0.020493518656969 0)
(1.0078821729608 -0.02147512721076 0)
(1.0086298718986 -0.022374722139394 0)
(1.0095172581324 -0.023396016583158 0)
(1.0103222686132 -0.024227824961181 0)
(1.0113812916043 -0.025334564609616 0)
(1.0122044344189 -0.02601031150771 0)
(1.0135452048511 -0.027310730368112 0)
(0.99999999446245 -0.00045297769549748 0)
(1.0000219491296 -0.0013905118748303 0)
(1.0000665394777 -0.0023429460190419 0)
(1.0001350836063 -0.0033012660884606 0)
(1.0002282406754 -0.0042599362875862 0)
(1.0003461447823 -0.0052159399501209 0)
(1.0004886678732 -0.0061698287464726 0)
(1.0006561876857 -0.0071244033333572 0)
(1.0008490825049 -0.008081700624258 0)
(1.0010684443436 -0.0090430252909618 0)
(1.0013147460001 -0.01000812035839 0)
(1.0015896341617 -0.010977807823986 0)
(1.0018932101751 -0.011951365342106 0)
(1.0022281097934 -0.012931147323216 0)
(1.0025935129707 -0.01391573604883 0)
(1.0029941324087 -0.014910096961796 0)
(1.0034269049755 -0.015909730887781 0)
(1.0039007752401 -0.016923932813357 0)
(1.0044072239669 -0.01794006569638 0)
(1.0049639749332 -0.018977264105756 0)
(1.0055499257047 -0.020005475624095 0)
(1.0062018046542 -0.021068035033115 0)
(1.0068704561079 -0.022097026923881 0)
(1.0076344980808 -0.023192127506629 0)
(1.0083827759105 -0.024199941467506 0)
(1.0092864684 -0.025348385510757 0)
(1.010097830039 -0.026289684786239 0)
(1.0111935684549 -0.027542893184305 0)
(1.0120264020066 -0.028319059943925 0)
(1.0134413913738 -0.029797515186462 0)
(0.99999988919193 -0.00047314403364018 0)
(1.0000192633277 -0.0014565626249236 0)
(1.0000591721574 -0.0024573580007734 0)
(1.0001209435632 -0.0034651212061456 0)
(1.0002052434768 -0.0044736746599318 0)
(1.0003122344625 -0.0054797869631397 0)
(1.0004418288953 -0.0064843067627833 0)
(1.000594505207 -0.0074906250005306 0)
(1.0007707429139 -0.0085012635206133 0)
(1.0009718089055 -0.0095178985368644 0)
(1.001198301228 -0.010540455590859 0)
(1.0014521208775 -0.011570049723143 0)
(1.0017334935484 -0.012606093236758 0)
(1.0020454398373 -0.01365142554135 0)
(1.0023872194981 -0.014704751443155 0)
(1.0027641700345 -0.015771855074784 0)
(1.0031731518212 -0.016848076491198 0)
(1.0036241799175 -0.017943952106694 0)
(1.0041082122506 -0.019045798042221 0)
(1.0046449104114 -0.020174912183845 0)
(1.0052115455909 -0.02129839040113 0)
(1.0058486020982 -0.0224641374648 0)
(1.0065027569133 -0.023597611888425 0)
(1.0072603575295 -0.024808705320119 0)
(1.008000342501 -0.025928881623557 0)
(1.0089104345495 -0.027209014489046 0)
(1.0097201013185 -0.028266707590578 0)
(1.0108424851343 -0.029672864659413 0)
(1.0116789196628 -0.030559606535249 0)
(1.0131581093025 -0.032223976197485 0)
(0.9999997737923 -0.00048931385706747 0)
(1.0000160810196 -0.0015109951946413 0)
(1.0000503708417 -0.0025526718204917 0)
(1.0001039634282 -0.003602456666704 0)
(1.0001775227079 -0.0046535111351563 0)
(1.000271235438 -0.0057023965099003 0)
(1.0003850536023 -0.0067502916784909 0)
(1.0005195503861 -0.0078012202775419 0)
(1.0006753036868 -0.0088582323647408 0)
(1.0008537439761 -0.0099234097983116 0)
(1.0010555954188 -0.010996900793978 0)
(1.0012829982298 -0.012080144361185 0)
(1.0015363151122 -0.013172740124993 0)
(1.0018189276455 -0.014278046048699 0)
(1.0021302119984 -0.015394972525667 0)
(1.0024760845881 -0.016530151663663 0)
(1.0028534177393 -0.017678891502825 0)
(1.0032732005463 -0.018852955019368 0)
(1.0037260596115 -0.020037813193417 0)
(1.0042333758191 -0.021256796593801 0)
(1.0047711992763 -0.022474519398797 0)
(1.0053832799052 -0.02374307833452 0)
(1.0060129752114 -0.024982059130396 0)
(1.0067532801755 -0.026310642563824 0)
(1.0074749882393 -0.02754673030246 0)
(1.0083800237877 -0.028962012615493 0)
(1.0091787142521 -0.030142800501492 0)
(1.0103156793227 -0.031707103523541 0)
(1.0111484319166 -0.032715131312542 0)
(1.0126791944449 -0.034571463186814 0)
(0.99999965001295 -0.00050143856925986 0)
(1.000012431858 -0.001553607639702 0)
(1.0000402131457 -0.0026285030364008 0)
(1.0000842872804 -0.003712686890349 0)
(1.0001453051172 -0.004798643270163 0)
(1.0002234714157 -0.0058827317480804 0)
(1.0003187747708 -0.0069664887084744 0)
(1.0004318725852 -0.0080546034865706 0)
(1.0005634339051 -0.0091506908936595 0)
(1.0007150345905 -0.010257265558616 0)
(1.0008875208156 -0.011374736776561 0)
(1.0010832473805 -0.012504891978974 0)
(1.0013027220433 -0.013647573259564 0)
(1.0015496498676 -0.014806680737521 0)
(1.0018235581072 -0.015981423314474 0)
(1.002130875675 -0.01717929145144 0)
(1.0024685782825 -0.018395715605836 0)
(1.0028484983876 -0.019643632686948 0)
(1.0032611445513 -0.020907934440809 0)
(1.0037293402218 -0.022213772171426 0)
(1.0042283767405 -0.02352379066393 0)
(1.0048046708267 -0.024893714128732 0)
(1.0053992412117 -0.026238317181877 0)
(1.0061104347535 -0.027684719019108 0)
(1.006802950966 -0.029039504839381 0)
(1.0076901448941 -0.030592094729181 0)
(1.0084674551187 -0.031902280004835 0)
(1.0096051516244 -0.033628357073574 0)
(1.0104257515689 -0.034768749060247 0)
(1.011993072557 -0.036820902638554 0)
(0.99999951940373 -0.00050954373385607 0)
(1.0000083595764 -0.0015844139493455 0)
(1.0000288179063 -0.0026848229505125 0)
(1.0000621395933 -0.0037957209393514 0)
(1.0001089509092 -0.0049089009642285 0)
(1.0001694666358 -0.006020524291018 0)
(1.0002437065362 -0.0071325050648706 0)
(1.0003323976687 -0.008250220974099 0)
(1.0004362886713 -0.0093778803830003 0)
(1.0005570760654 -0.010518450003241 0)
(1.0006957187564 -0.011672635641094 0)
(1.00085475252 -0.012842590176132 0)
(1.0010348327069 -0.014028453935202 0)
(1.0012399373678 -0.015234681504481 0)
(1.0014697750386 -0.016460880230993 0)
(1.0017312016523 -0.01771538936956 0)
(1.0020213881749 -0.018993939484974 0)
(1.0023528487648 -0.020310549809363 0)
(1.0027161977913 -0.021649858983513 0)
(1.0031353756033 -0.023038545098754 0)
(1.0035854157973 -0.024437936117766 0)
(1.0041147152672 -0.025906631696801 0)
(1.0046630297935 -0.027355966237432 0)
(1.0053325984139 -0.028919218107036 0)
(1.0059842859394 -0.03039457738283 0)
(1.006839783925 -0.032085143848642 0)
(1.0075843332141 -0.033530435003326 0)
(1.0087073804781 -0.035420092257966 0)
(1.009506193929 -0.036704074752074 0)
(1.0110929401099 -0.038953404910503 0)
(0.99999938457917 -0.00051372476206572 0)
(1.0000039189336 -0.0016036404925863 0)
(1.0000163350063 -0.0027219531059371 0)
(1.0000378092348 -0.003851953251922 0)
(1.0000689290956 -0.0049847352134548 0)
(1.0001099102644 -0.0061162629223913 0)
(1.0001607964112 -0.0072488408983673 0)
(1.0002223657226 -0.0083885467106414 0)
(1.0002954306324 -0.0095402019139147 0)
(1.000381777959 -0.010707236045332 0)
(1.0004824649299 -0.011890682272857 0)
(1.0006001671094 -0.013093068529082 0)
(1.0007356840154 -0.014314887442946 0)
(1.0008932052256 -0.015561149637608 0)
(1.0010726441132 -0.01683196354759 0)
(1.0012811816574 -0.018136489029216 0)
(1.0015162708699 -0.019470950682775 0)
(1.0017909218517 -0.020850324341721 0)
(1.0020960795226 -0.022259371132521 0)
(1.0024564356667 -0.023725927740208 0)
(1.0028472852104 -0.025210781257371 0)
(1.0033182546369 -0.026774482498874 0)
(1.0038089657513 -0.028326581856965 0)
(1.0044239774077 -0.030004334583738 0)
(1.0050227073985 -0.031601103344709 0)
(1.0058318801352 -0.033428690203006 0)
(1.0065314935912 -0.035014017676835 0)
(1.0076232820645 -0.037067041632972 0)
(1.0083895748379 -0.038505737560588 0)
(1.0099767920394 -0.040950827573613 0)
(0.99999924704006 -0.00051414367488741 0)
(0.99999917532366 -0.0016116952520506 0)
(1.0000029445428 -0.0027405233816444 0)
(1.00001163701 -0.0038822199798864 0)
(1.0000257922094 -0.0050271683044249 0)
(1.0000456167056 -0.006171136108879 0)
(1.0000711690798 -0.0073168239875097 0)
(1.0001032571188 -0.0084710111916558 0)
(1.0001427371272 -0.0096391429314924 0)
(1.0001914512538 -0.010825113963744 0)
(1.0002505350398 -0.012030308815804 0)
(1.0003227568839 -0.013257633175386 0)
(1.0004090501666 -0.014507979999665 0)
(1.0005137470277 -0.015786909418911 0)
(1.0006369799985 -0.017095128319414 0)
(1.0007861420436 -0.018442577535927 0)
(1.0009590434114 -0.019826170695324 0)
(1.0011689883857 -0.021261696149329 0)
(1.0014074666147 -0.022734436055094 0)
(1.0016995329939 -0.024272975412079 0)
(1.0020212564473 -0.025838411592177 0)
(1.0024227056489 -0.027492204911192 0)
(1.0028445065293 -0.029143984816609 0)
(1.0033919012671 -0.030932484419255 0)
(1.0039252935341 -0.032650341554984 0)
(1.0046730370058 -0.034612290461969 0)
(1.0053149608099 -0.036341633766723 0)
(1.0063580007438 -0.03855568964596 0)
(1.0070800720781 -0.040159872001894 0)
(1.0086473237474 -0.04279635270561 0)
(0.9999991074718 -0.0005110171738975 0)
(0.99999419773557 -0.001609168291475 0)
(0.99998883874953 -0.0027414581847482 0)
(0.99998399413197 -0.0038877599324192 0)
(0.99998014305162 -0.0050377441479098 0)
(0.99997747682919 -0.0061869750249294 0)
(0.99997605876416 -0.0073385458047356 0)
(0.99997670298594 -0.0084999291321106 0)
(0.99998028730935 -0.0096771950883746 0)
(0.99998867160698 -0.010874699274821 0)
(1.000003043343 -0.01209419406056 0)
(1.0000262135249 -0.013338960899472 0)
(1.0000592304095 -0.014610330039507 0)
(1.0001064975212 -0.01591440224636 0)
(1.0001683662734 -0.017252562878633 0)
(1.0002523274248 -0.018635498361116 0)
(1.0003565999371 -0.020060979231706 0)
(1.0004945820775 -0.02154548104723 0)
(1.000658487377 -0.023075167605373 0)
(1.0008733537276 -0.024679000981568 0)
(1.0011164927844 -0.026319196998893 0)
(1.0014376410478 -0.028057124190266 0)
(1.0017795167422 -0.029804344879191 0)
(1.0022464097154 -0.031698518932438 0)
(1.0027020900066 -0.033535844656799 0)
(1.0033731154006 -0.035627811510869 0)
(1.0039442190237 -0.037503949886046 0)
(1.0049204648162 -0.039874581268101 0)
(1.0055858764462 -0.041654493063521 0)
(1.007111688869 -0.044475023315015 0)
(0.99999897190214 -0.00050459998838817 0)
(0.99998904926417 -0.0015967732455337 0)
(0.99997420157797 -0.00272590798692 0)
(0.99995525095449 -0.0038701439051953 0)
(0.99993260277945 -0.0050184370043118 0)
(0.9999064220965 -0.0061661423711458 0)
(0.99987676501217 -0.0073167365407856 0)
(0.99984442749259 -0.0084783660365636 0)
(0.99981028509 -0.0096577153424559 0)
(0.99977617664578 -0.010859589855265 0)
(0.99974331152521 -0.012086121701248 0)
(0.9997144936003 -0.013340961772059 0)
(0.99969085760251 -0.014625898910728 0)
(0.99967680954311 -0.015947565256835 0)
(0.99967289842295 -0.017308074895562 0)
(0.99968661113366 -0.018718846224214 0)
(0.99971658468989 -0.020178611728105 0)
(0.99977614446277 -0.021704486126745 0)
(0.99985832741658 -0.023283739329498 0)
(0.99998784608164 -0.024945531598211 0)
(1.0001435890038 -0.026653720345458 0)
(1.0003743187265 -0.028468983648698 0)
(1.0006257430694 -0.030306138153888 0)
(1.0009997519441 -0.032299908798363 0)
(1.0013656212919 -0.034253514131794 0)
(1.00194481256 -0.036469830449295 0)
(1.002431788334 -0.038493746601823 0)
(1.0033227845361 -0.041014493017193 0)
(1.003918536153 -0.042979333927479 0)
(1.005380904192 -0.045973683785942 0)
(0.99999883872173 -0.00049517955417257 0)
(0.99998379146986 -0.0015753019311392 0)
(0.99995920899472 -0.0026951531984758 0)
(0.99992575578221 -0.0038311423132611 0)
(0.9998837584184 -0.0049715135594008 0)
(0.99983334586396 -0.0061113947418255 0)
(0.99977455443705 -0.0072546289804035 0)
(0.99970813596303 -0.00841000863698 0)
(0.99963493761785 -0.009584807675769 0)
(0.99955672611274 -0.01078425592666 0)
(0.99947470486979 -0.012010878360257 0)
(0.99939162384297 -0.013268682138847 0)
(0.99930867884298 -0.014559931334621 0)
(0.99923020500817 -0.015891771293863 0)
(0.99915691418194 -0.017267071831097 0)
(0.99909619436331 -0.018697979883186 0)
(0.9990470664651 -0.020184221116617 0)
(0.99902266230086 -0.021743600019554 0)
(0.99901682875173 -0.023364501929328 0)
(0.99905378950759 -0.025076453650579 0)
(0.99911408134218 -0.026844879941141 0)
(0.9992451842143 -0.028730122072886 0)
(0.99939618751544 -0.030650101248589 0)
(0.99966577668038 -0.032736986913521 0)
(0.99993013170732 -0.034801341590427 0)
(1.000403172573 -0.037136332964984 0)
(1.0007929336373 -0.039305707261838 0)
(1.0015801135371 -0.041969435122783 0)
(1.0020926595114 -0.044124499461487 0)
(1.0034687097743 -0.047279485506814 0)
(0.99999870685774 -0.00048306500473929 0)
(0.99997847218744 -0.0015456084846662 0)
(0.99994400626796 -0.0026505508515736 0)
(0.99989580526033 -0.003772599003082 0)
(0.99983412482377 -0.0048993224502698 0)
(0.99975905141579 -0.0060255951968033 0)
(0.9996705803507 -0.0071555894976179 0)
(0.99956939738623 -0.0082987077886219 0)
(0.99945631020806 -0.0094628089448348 0)
(0.99933293617338 -0.010653516995653 0)
(0.99920045007488 -0.011873749074874 0)
(0.99906148386742 -0.013127815512302 0)
(0.99891730183015 -0.014418485659537 0)
(0.99877205826839 -0.015753361001319 0)
(0.99862664331086 -0.0171361237181 0)
(0.99848818783623 -0.018579586457411 0)
(0.99835612311579 -0.020084523397396 0)
(0.99824318341007 -0.021669444904924 0)
(0.99814405475215 -0.023323777411221 0)
(0.99808228009144 -0.025077773315354 0)
(0.9980400182575 -0.026897784147162 0)
(0.99806337732292 -0.02884526067793 0)
(0.99810465520014 -0.03083889372483 0)
(0.9982594102078 -0.033012555254253 0)
(0.99841071560907 -0.035177980977838 0)
(0.99876475393426 -0.037628351939448 0)
(0.9990448177917 -0.039933740803793 0)
(0.99971142503909 -0.042739125266907 0)
(1.0001278510221 -0.045077219120265 0)
(1.0013917851038 -0.048379644746116 0)
(0.99999857587688 -0.00046864671693505 0)
(0.99997320625904 -0.0015087539452368 0)
(0.99992884919661 -0.0025936806964095 0)
(0.99986579938776 -0.0036965186869404 0)
(0.99978427906106 -0.0048042918705924 0)
(0.99968437726119 -0.0059116101712407 0)
(0.99956601741778 -0.0070229225949733 0)
(0.9994297453163 -0.0081480571264605 0)
(0.99927631463823 -0.0092955059990736 0)
(0.99910714796569 -0.010471379422715 0)
(0.99892342651079 -0.011679011224836 0)
(0.99872755163929 -0.012922899493179 0)
(0.99852090257304 -0.014206363296842 0)
(0.99830724649514 -0.015537319070438 0)
(0.99808780890563 -0.016920395249875 0)
(0.9978690984109 -0.018368828044866 0)
(0.99765129917313 -0.019884735731754 0)
(0.99744609756165 -0.021487017011876 0)
(0.99724969750113 -0.023166543545276 0)
(0.99708388389678 -0.024954063877793 0)
(0.99693358326248 -0.026816821515922 0)
(0.99684195486157 -0.028818369716555 0)
(0.99676601060594 -0.030875415040833 0)
(0.99679631401682 -0.033129984628721 0)
(0.996824220196 -0.035382299442846 0)
(0.99704689514835 -0.037949979828427 0)
(0.99720547138872 -0.040368758699645 0)
(0.99773780766921 -0.043337711263689 0)
(0.99805322742429 -0.045821025153336 0)
(0.99917518629916 -0.049302064406303 0)
(0.99999844679748 -0.0004525080143147 0)
(0.99996825059201 -0.0014664076709785 0)
(0.9999142935706 -0.0025270284754697 0)
(0.99983647957472 -0.0036059462812056 0)
(0.99973507479994 -0.0046898433381221 0)
(0.99961032730487 -0.005773049134244 0)
(0.99946222769801 -0.0068604868066902 0)
(0.9992910468171 -0.0079619439739692 0)
(0.99909716668105 -0.0090864756808585 0)
(0.99888180756731 -0.010240774094736 0)
(0.99864637943536 -0.011428745635964 0)
(0.99839298589138 -0.01265508350826 0)
(0.99812317145777 -0.013923780068798 0)
(0.99784006316859 -0.015242949524129 0)
(0.99754548258064 -0.016618408827745 0)
(0.99724473552236 -0.018063413606729 0)
(0.99693943397141 -0.019582070373769 0)
(0.99663892360869 -0.021192851217996 0)
(0.99634272211663 -0.022889585802601 0)
(0.99606796004793 -0.024701809686225 0)
(0.99580651833686 -0.026600408111896 0)
(0.99559230991513 -0.028648229525766 0)
(0.99539591623581 -0.030763078284809 0)
(0.99529021088553 -0.033094653173557 0)
(0.99519139851692 -0.035425548982226 0)
(0.99526437112647 -0.038121285392947 0)
(0.99529679276451 -0.040623331340142 0)
(0.99566769173467 -0.043824831516209 0)
(0.99589978298393 -0.046353323174191 0)
(0.99684278274128 -0.05025744379608 0)
(0.99999833202033 -0.00043571855636857 0)
(0.99996349649958 -0.0014219500826402 0)
(0.99990046239159 -0.0024569577540546 0)
(0.99980822480973 -0.0035107227946419 0)
(0.999687130483 -0.0045692100358136 0)
(0.99953757402782 -0.0056261605281838 0)
(0.99936004560322 -0.0066871332605581 0)
(0.99915473528634 -0.0077618300660689 0)
(0.99892102691164 -0.0088603609334343 0)
(0.99865977817161 -0.0099894425101192 0)
(0.99837270684277 -0.011153382206101 0)
(0.9980617028132 -0.012357290193369 0)
(0.99772846964184 -0.013606101591253 0)
(0.99737544214872 -0.014908314051585 0)
(0.99700513438072 -0.016271458566922 0)