/*--------------------------------*- C++ -*----------------------------------*\
| =========                 |                                                 |
| \\      /  F ield         | OpenFOAM: The Open Source CFD Toolbox           |
|  \\    /   O peration     | Version:  2112                                  |
|   \\  /    A nd           | Website:  www.openfoam.com                      |
|    \\/     M anipulation  |                                                 |
\*---------------------------------------------------------------------------*/
FoamFile
{
    version     2.0;
    format      ascii;
    arch        "LSB;label=32;scalar=64";
    class       surfaceScalarField;
    location    "13.9";
    object      phi;
}
// * * * * * * * * * * * * * * * * * * * * * * * * * * * * * * * * * * * * * //

dimensions      [0 3 -1 0 0 0 0];

oriented        oriented;

internalField   nonuniform List<scalar> 
43645
(
0.39512383177782
-4.9587656218991e-06
0.39513864468476
-1.4812968466797e-05
0.39516332645788
-2.468183964134e-05
0.39519792915628
-3.4602767158606e-05
0.39524246806177
-4.453897460258e-05
0.39529689868092
-5.4430687653697e-05
0.39536112421783
-6.422560423546e-05
0.3954350237614
-7.3899609542629e-05
0.39551847515471
-8.3451457744651e-05
0.39561137036337
-9.2895271598934e-05
0.39571361262222
-0.00010224232020452
0.39582511650735
-0.00011150394500849
0.39594578879762
-0.00012067234859671
0.3960755331879
-0.00012974444720878
0.39621422115365
-0.00013868802123369
0.3963617216983
-0.00014750059889443
0.39651785101513
-0.00015612936977759
0.39668245201684
-0.00016460105362781
0.39685528157653
-0.00017282961053395
0.39703619069285
-0.00018090916638773
0.39722485695164
-0.00018866630803293
0.39742119269831
-0.00019633579540214
0.39762472289901
-0.00020353024887258
0.39783552665953
-0.00021080380843845
0.3980528042279
-0.00021727761599462
0.3982770534303
-0.00022424925001296
0.39850676414711
-0.00022971076434305
0.39874344136214
-0.00023667726213327
0.39898397258623
-0.00024053127030281
-0.00024819838598125
0.39923217092513
0.37294715558171
-9.5597003376135e-06
0.3729609984011
-2.8655888910763e-05
0.37298426694322
-4.7950484683366e-05
0.37301700464692
-6.7340573713968e-05
0.37305922316929
-8.675759858959e-05
0.37311088497018
-0.00010609258847813
0.37317190889292
-0.00012524962490134
0.3732421938795
-0.00014418469207487
0.37332163804007
-0.00016289571212437
0.37341015205048
-0.00018140937379433
0.37350765590384
-0.00019974626319902
0.37361407947468
-0.00021792760350597
0.37372934438228
-0.00023593734175808
0.37385336970319
-0.00025376985183361
0.37398604365477
-0.00027136205459619
0.37412725338624
-0.00028871041051857
0.37427683448929
-0.000305710551297
0.37443464951488
-0.00032241615638647
0.3746004753031
-0.00033865547457159
0.37477418191523
-0.00035461585336727
0.37495546714183
-0.00036995160849299
0.37514426203847
-0.000385130765309
0.37534011448592
-0.00039938276892732
0.37554312175079
-0.00041381114568368
0.37575251306541
-0.00042666900264624
0.37596879963122
-0.00044053588792551
0.37619051473786
-0.00045142594300324
0.37641916394629
-0.00046532654191867
0.3766517188709
-0.00047308626394932
-0.00048847139605688
0.37689199180984
0.35201537355002
-1.4035825411946e-05
0.35202882453452
-4.2106978943901e-05
0.35205133013601
-7.0456192135081e-05
0.35208294039818
-9.8950940764733e-05
0.35212367219346
-0.00012748949678266
0.35217349818679
-0.00015591868253456
0.35223235586378
-0.00018410740017598
0.35230016924635
-0.00021199817059971
0.35237686342796
-0.00023958998716963
0.35246237483788
-0.0002669208748153
0.3525566461784
-0.00029401769229334
0.35265962800373
-0.00032090951515407
0.35277126111002
-0.00034757053193763
0.3528914854841
-0.00037399430773615
0.35302021105873
-0.00040008770885189
0.3531573511099
-0.0004258505395646
0.35330276595085
-0.0004511254682696
0.3534563478272
-0.00047599810740204
0.35361789557632
-0.00050020329694119
0.35378731067795
-0.00052403102734571
0.35396430569503
-0.00054694669694869
0.35414885037086
-0.00056967551209397
0.35434049550341
-0.00059102797188513
0.35453939562335
-0.00061271133605515
0.35474475399114
-0.00063202744071729
0.35495717503103
-0.00065295699851739
0.35517509385352
-0.00066934483637655
0.35540018502269
-0.00069041778170388
0.35562915958275
-0.00070206089241687
-0.00072546157680885
0.35586614969231
0.33225836981384
-1.8361768998797e-05
0.33227141243104
-5.5149691062635e-05
0.33229323209217
-9.2275948680362e-05
0.33232386555765
-0.0001295845007866
0.33236332606271
-0.00016695009467673
0.33241159680044
-0.00020418951118909
0.33246863861818
-0.00024114930666683
0.33253440683813
-0.00027776647721271
0.33260885987392
-0.00031404310732882
0.33269196605459
-0.00035002713772881
0.33278369638115
-0.00038574809877586
0.33288402748201
-0.00042124069386929
0.33299292427255
-0.00045646739808205
0.3331103532649
-0.00049142337379648
0.33323625158212
-0.00052598609775092
0.33337056572866
-0.00056016475619053
0.3335131867029
-0.00059374651088882
0.33366404474496
-0.00062685621662639
0.33382296521354
-0.00065912383136937
0.33398989027519
-0.0006909561540718
0.33416454833064
-0.00072160481655822
0.33434696045071
-0.0007520876959836
0.33453667549185
-0.00078074307631865
0.33473392675621
-0.00080996266376982
0.33493787404244
-0.00083597479013772
0.33514925697963
-0.00086433999929431
0.33536636944664
-0.00088645736710837
0.33559114873798
-0.00091519713647161
0.33581995611382
-0.00093086832959866
-0.00096299463942645
0.33605748911234
0.31361023199919
-2.2536469730895e-05
0.3136228728079
-6.7790585724174e-05
0.31364403016466
-0.0001134333915194
0.31367373161391
-0.0001592860350788
0.31371198689092
-0.00020520545490387
0.31375879069964
-0.00025099340117714
0.31381413080298
-0.00029648948903876
0.31387799933449
-0.00034163508564363
0.31395039420109
-0.00038643804848694
0.31403132178483
-0.00043095479389874
0.31412078712319
-0.00047521350719594
0.31421879861181
-0.00051925225048426
0.31432535083574
-0.00056301968776146
0.31444044309944
-0.00060651570141589
0.31456404602097
-0.00064958908120153
0.3146961469789
-0.00069226577455922
0.31483667450094
-0.00073427409172948
0.31498560557613
-0.00077578734956926
0.31514279808271
-0.00081631639450527
0.31530824480837
-0.00085640293569439
0.3154816938776
-0.00089505394101688
0.31566323083063
-0.00093362470411359
0.31585240241778
-0.0009699147182694
0.31604954122728
-0.0010071015283755
0.31625375389983
-0.0010401875178806
0.31646595045008
-0.0010765366054228
0.31668425007518
-0.0011047570484956
0.31691091646602
-0.0011418635836842
0.31714187009455
-0.0011618220129074
-0.0012036174255853
0.31738249282281
0.29600871545406
-2.655013957771e-05
0.29602093085161
-8.0006062999464e-05
0.29604138753627
-0.0001338901559207
0.29607010534714
-0.00018800392470263
0.29610709218875
-0.00024219237358123
0.29615235677079
-0.0002962580585554
0.29620591756762
-0.000350050359179
0.29626780849614
-0.00040352608557705
0.29633807248089
-0.00045670210250278
0.29641675961183
-0.00050964199216418
0.29650391439493
-0.00056236835543587
0.29659958245209
-0.00061492037090378
0.29670379346006
-0.00066723075688106
0.29681658562159
-0.00071930792241112
0.29693796937056
-0.00077097288773974
0.29706798053923
-0.00082227699940047
0.29720659239998
-0.00087288600707982
0.2973538376054
-0.00092303260859314
0.29750961361501
-0.00097209245651886
0.29767397403832
-0.0010207634108191
0.29784669252705
-0.0010677724807809
0.29802793187054
-0.0011148640984553
0.29821723969508
-0.0011592225932464
0.2984150657696
-0.0012049276535418
0.29862045907944
-0.0012455808783022
0.29883452747877
-0.0012906050558509
0.2990551933399
-0.0013254229609414
0.29928509442155
-0.0013717647165857
0.29951965195294
-0.0013963795939552
-0.0014489875508008
0.29976502202545
0.27939506668734
-3.0382374778033e-05
0.27940679955615
-9.17390030549e-05
0.2794264623271
-0.00015355299794038
0.27945406782747
-0.00021560949514471
0.27948962330537
-0.00027774791994211
0.27953315371014
-0.00033978853014533
0.27958471154076
-0.00040160825468928
0.27964437661259
-0.00046319122052494
0.27971224135444
-0.00052456690541794
0.2797884042131
-0.00058580491009043
0.27987295379253
-0.00064691799203347
0.27996597776985
-0.00070794440365343
0.28006754591633
-0.00076879895680099
0.28017774104789
-0.00082950310585559
0.28029661952328
-0.00088985141324063
0.28042427289539
-0.00094993042035659
0.28056072646889
-0.0010093396279745
0.28070607732639
-0.0010683835126093
0.2808602702611
-0.0011262854366548
0.28102342988611
-0.0011839230807966
0.281195362811
-0.0012397054499509
0.28137632141137
-0.0012958227430549
0.28156586017072
-0.0013487613965176
0.28176456219487
-0.0014036297219332
0.28197142075406
-0.0014524394817651
0.28218776439419
-0.0015069487408902
0.28241131078853
-0.0015489694004981
0.282645107917
-0.0016055618903667
0.28288404971615
-0.0016353214371535
-0.0017000694439445
0.2831351315621
0.26371383230705
-3.4005293747806e-05
0.26372500152933
-0.00010290829026625
0.26374373831975
-0.00017228985311115
0.26377004890213
-0.00024192014143233
0.26380394043983
-0.00031163952013605
0.26384545558683
-0.00038130373829231
0.26389468324159
-0.00045083596891814
0.26395175211948
-0.00052026015641006
0.26401680745722
-0.00058962229934733
0.26408999954001
-0.00065899704753924
0.26417146467935
-0.0007283831841778
0.26426133652451
-0.00079781630009686
0.26435972921822
-0.00086719170000416
0.26446677516738
-0.00093654910312231
0.26458258220632
-0.0010056584986598
0.26470730416701
-0.0010746524263787
0.26484102537168
-0.0011430608765989
0.26498391552073
-0.001211273704781
0.26513597484158
-0.0012783447995445
0.26529740872179
-0.0013453570025612
0.26546806556177
-0.0014103623307221
0.26564829897862
-0.0014760562005396
0.26583767950362
-0.0015381419617018
0.26603693765906
-0.0016028879177088
0.26624501943455
-0.0016605212974004
0.26646349146646
-0.0017254208133501
0.26668987253721
-0.0017753505118124
0.2669276424047
-0.0018433317983062
0.26717116791701
-0.0018788469885837
-0.0019572126740634
0.26742831110513
0.24891267458668
-3.7387245236909e-05
0.2489231828012
-0.00011341656224378
0.24894083782415
-0.00018994493330317
0.24896563870512
-0.00026672107890029
0.24899759241475
-0.00034359328503088
0.24903675977311
-0.0004204711507537
0.24908326711895
-0.00049734336738671
0.24913729359362
-0.00057428668245031
0.24919903908832
-0.00065136784382252
0.24926870782799
-0.00072866583567865
0.24934648624058
-0.00080616164359375
0.2494325566906
-0.0008838867956495
0.24952708095036
-0.00096171600369076
0.24963024484986
-0.0010397130453754
0.24974221230532
-0.0011176259953976
0.24986320476893
-0.0011956449303166
0.24999337184557
-0.0012732279923033
0.25013296287936
-0.0013508647769465
0.25028204156931
-0.0014274235268917
0.25044090279776
-0.0015042182680104
0.25060944670347
-0.0015789062727367
0.25078813831847
-0.0016547478517452
0.25097657634158
-0.0017265800205953
0.25117564960582
-0.0018019612179051
0.25138427189558
-0.0018691436229263
0.25160425776967
-0.0019454067235812
0.25183294720575
-0.0020040399840026
0.25207425645408
-0.0020846410826393
0.25232205714725
-0.0021266477165677
-0.0022202206334713
0.25258506506906
0.23494219704966
-4.0496784190657e-05
0.23495194181755
-0.00012316138183018
0.23496835109999
-0.00020635426726962
0.23499141519035
-0.00028978522020964
0.2350211406317
-0.00037331877631436
0.2350576066122
-0.00045693718028572
0.23510097712416
-0.00054071392718269
0.23515148165176
-0.00062479125690491
0.23520937476566
-0.00070926100325432
0.23527491485807
-0.00079420597258678
0.23534833928116
-0.00087958610977509
0.23542988028262
-0.00096542783916569
0.2355197492701
-0.0010515850318461
0.23561818777668
-0.0011381515916489
0.23572541920727
-0.0012248574643857
0.23584173615092
-0.001311961911543
0.23596735874128
-0.0013988506191028
0.23610262100805
-0.001486127079537
0.23624765778226
-0.0015724603359871
0.23640286010142
-0.0016594206216524
0.23656819059623
-0.0017442368013104
0.23674423330426
-0.0018307905933664
0.23693063049717
-0.0019129772465745
0.23712843563714
-0.0019997663909804
0.23733655293648
-0.0020772609550034
0.23755704558671
-0.0021658994067288
0.23778710926493
-0.0022341036948863
0.23803108190977
-0.0023286137598301
0.23828240346232
-0.0023779693002323
-0.0024884075966532
0.23855059039191
0.22175577649741
-4.3303535242552e-05
0.22176466264957
-0.00013204757980082
0.22177966905422
-0.00022136071760859
0.22180077697426
-0.00031089318551005
0.22182799204205
-0.00040053388852626
0.22186141098862
-0.00049035617060177
0.22190123438365
-0.00058053736498501
0.22194774086418
-0.00067129777945641
0.22200123863709
-0.00076275881710235
0.22206203895528
-0.00085500633092583
0.22213042917881
-0.00094797637228796
0.22220669061028
-0.0010416893088169
0.22229108473602
-0.001135979194593
0.22238390891564
-0.0012309758075206
0.22248544817589
-0.0013263967597647
0.22259606713295
-0.0014225809030898
0.22271606087548
-0.0015188443951293
0.22284584982182
-0.0016159160588612
0.22298564785216
-0.001712258398484
0.22313594460006
-0.0018097174013797
0.2232967779181
-0.0019050701505036
0.22346885252951
-0.0020028652357905
0.22365187456912
-0.002095999316679
0.22384705928188
-0.0021949511342354
0.22405333572312
-0.0022835374263539
0.22427300352688
-0.0023855672406863
0.22450316880083
-0.0024642689987065
0.22474855850757
-0.0025740034960756
0.22500226966659
-0.0026316804875465
-0.0027606480959522
0.22527451013527
0.20930940953559
-4.5781159933086e-05
0.20931735418381
-0.00013999226914791
0.20933081799673
-0.00023482457160015
0.20934977325054
-0.00032984848012929
0.20937422420503
-0.00042498488317879
0.20940428373587
-0.00052041574114472
0.20944018670007
-0.00061644036813397
0.20948225775306
-0.00071336887089916
0.20953085548904
-0.00081135659067802
0.20958634094487
-0.00091049182378237
0.20964904956736
-0.0010106850308874
0.20971930929595
-0.0011119490729283
0.20979743054199
-0.0012141004751881
0.20988376423592
-0.0013173095354431
0.20997865775812
-0.0014212903150114
0.21008254527724
-0.0015264684547479
0.2101958008744
-0.0016321000239453
0.21031892797878
-0.0017390431944931
0.21045222950437
-0.001845559954535
0.21059628813009
-0.0019537760572717
0.2107512360051
-0.0020600180550159
0.21091788741833
-0.0021695166783372
0.21109604625041
-0.0022741581775065
0.21128706241328
-0.0023859673257838
0.21148995253825
-0.0024864275794925
0.21170719484485
-0.0026028095754273
0.21193591218308
-0.0026929863646003
0.2121811403145
-0.0028192316546762
0.21243579031082
-0.002886330509805
-0.0030354698746241
0.21271061206145
0.19756156427286
-4.7908937770794e-05
0.19756850058633
-0.00014692861950822
0.19758030761806
-0.00024663164026639
0.19759694857368
-0.00034648947253546
0.19761842557554
-0.00044646192135651
0.19764486555886
-0.00054685576049851
0.19767653420614
-0.00064810905088065
0.19771379776098
-0.00075063246089779
0.19775706048872
-0.00085461935292382
0.19780672844794
-0.00096015981714701
0.1978631807416
-0.0010671373579732
0.19792678808419
-0.0011755564485573
0.19799790705452
-0.0012852194777943
0.19807693845095
-0.0013963409637483
0.19816428996524
-0.0015086418603971
0.1982604611663
-0.0016226396865441
0.19836590611332
-0.0017375450009511
0.19848120522895
-0.0018543423397822
0.19860675957548
-0.0019711143300237
0.19874323177632
-0.0020902482868152
0.19889087592156
-0.0022076622283285
0.19905058215523
-0.0023292229398813
0.1992223196128
-0.0024458956623753
0.1994074858182
-0.0025711335583616
0.19960534545568
-0.002684287243607
0.19981833921014
-0.0028158033564074
0.20004392444882
-0.0029185716292664
0.20028711028443
-0.0030624175157202
0.20054091493579
-0.0031401351853826
-0.0033110696778333
0.20081651471279
0.18647304121702
-4.967281649434e-05
0.18647892148876
-0.00015280892481427
0.18648898866792
-0.00025669885311721
0.18650319667678
-0.0003606975150664
0.18652154454214
-0.00046480982004899
0.18654417064216
-0.00056948189371133
0.18657136704781
-0.00067530548932033
0.18660353597647
-0.00078280142218675
0.18664112113619
-0.00089220454479068
0.1866845675716
-0.0010036062844945
0.18673429208831
-0.0011168619060838
0.18679070292582
-0.0012319673172351
0.18685419709538
-0.001348713677931
0.1869252212242
-0.0014673651229026
0.18700423755283
-0.0015876582187298
0.18709180755368
-0.0017102097168427
0.18718845863162
-0.0018341961077042
0.18729484768133
-0.0019607314180421
0.18741146722478
-0.002087733901374
0.18753906395609
-0.0022178450457794
0.18767800823468
-0.0023466065339318
0.18782927491432
-0.0024804896462997
0.18799299349727
-0.002609614271493
0.18817062588733
-0.0027487659743631
0.18836168053318
-0.0028753419148123
0.18856856688512
-0.0030226897334741
0.18878917296712
-0.0031391777357843
0.18902823855689
-0.003301483129402
0.1892794525827
-0.0033913492339075
-0.0035854248458017
0.18955380772609
0.17600684183485
-5.1065920356614e-05
0.17601163914179
-0.00015760626261678
0.17601991768474
-0.00026497742711437
0.17603162187052
-0.00037240173195199
0.17604674648587
-0.0004799344662605
0.1760654383008
-0.00058817373945141
0.17608801062834
-0.00069787784734488
0.17611489506791
-0.0008096858921711
0.17614656750383
-0.00092387701073924
0.17618350474591
-0.0010405435565165
0.17622615420773
-0.0011595113974111
0.176274955019
-0.0012807681579138
0.17633033775712
-0.0014040964449906
0.17639278837523
-0.0015298157698348
0.17646281615908
-0.0016576860309157
0.17654103897596
-0.0017884325619006
0.17662804861234
-0.0019212057717136
0.17672457549148
-0.0020572583246098
0.17683119248353
-0.0021943509202505
0.17694873584358
-0.002335388432391
0.17707767407321
-0.0024755447894882
0.17721909009513
-0.0026219056938351
0.17737323494038
-0.0027637591416997
0.17754170190352
-0.0029172329621511
0.17772414157846
-0.0030577816137251
0.17792311384972
-0.0032216620283801
0.1781367052452
-0.0033527691542483
0.17836965893183
-0.0035344368383577
0.17861624284943
-0.0036379331727191
-0.0038561445758793
0.17888696255649
0.16612804464683
-5.2088614128187e-05
0.16613175338651
-0.00016131503106967
0.16613822975608
-0.00027145382566083
0.16614740845796
-0.00038158046286893
0.16615927891571
-0.00049180495282849
0.16617399297179
-0.00060288782428808
0.1661918795704
-0.0007157644743961
0.16621339244483
-0.00083119879494293
0.16623903170286
-0.0009495162967333
0.16626929783129
-0.001070809712831
0.16630466100726
-0.0011948746008891
0.16634558350148
-0.0013216906795836
0.16639252173316
-0.0014510347037689
0.16644599281377
-0.0015832868774871
0.16650654450848
-0.0017182377522817
0.16657484190011
-0.0018567299801035
0.16665153252816
-0.0019978964258853
0.1667374115397
-0.0021431373620741
0.16683312379171
-0.0022900631976251
0.16693958868488
-0.0024418533506196
0.16705736543966
-0.00259332156865
0.16718764388536
-0.0027521841635009
0.16733078785075
-0.0029069031303005
0.16748852930884
-0.0030749744429723
0.16766064542499
-0.0032298977518361
0.16784988235304
-0.0034108989779149
0.1680544452643
-0.003557332086258
0.16827931524276
-0.0037593068368819
0.16851893666563
-0.0038775546146608
-0.0041208597922568
0.16878365186119
0.15680368824055
-5.2748190032754e-05
0.15680632329316
-0.00016395011086533
0.15681101802352
-0.00027614858332888
0.15681769739279
-0.00038825985939095
0.15682634441106
-0.00050045199800288
0.15683711260165
-0.00061365604155284
0.15685034073074
-0.00072899262970077
0.15686649708404
-0.00084735517419066
0.15688609770865
-0.0009691169467865
0.1569096582215
-0.0010943702509092
0.15693766329187
-0.0012228796960685
0.15697058993994
-0.0013546173523638
0.15700891207675
-0.0014893568649463
0.15705316877023
-0.0016275435953231
0.1571039366889
-0.0017690056950066
0.15716191736616
-0.0019147106813561
0.15722780329257
-0.002063782375904
0.15730244325311
-0.0022177773460547
0.15738654418322
-0.0023741641506064
0.15748109761185
-0.0025364068017499
0.15758674569705
-0.0026989696755912
0.15770477432335
-0.0028702128109818
0.1578356576416
-0.0030377864688338
0.15798125415353
-0.0032205709744971
0.15814147579966
-0.0033901194166129
0.15831923524046
-0.0035886584366798
0.15851287948124
-0.003750976344174
0.15872760590408
-0.0039740332761441
0.15895808406082
-0.0041080327870378
-0.004377157190699
0.15921438144195
0.14800266094108
-5.3058225528735e-05
0.14800425614779
-0.00016554534390888
0.14800722122437
-0.00027911368621559
0.14801147146427
-0.00039251012520427
0.14801698272544
-0.00050596328436775
0.1480239068652
-0.00062058020590231
0.14803258676682
-0.00073767255506142
0.14804349769261
-0.00085826612306945
0.14805716342527
-0.00098278270172226
0.14807410605034
-0.0011113128977509
0.14809481653423
-0.001243590201123
0.14811977788251
-0.0013795787215591
0.14814947301609
-0.0015190520190604
0.14818445290118
-0.0016625235008994
0.14822531316539
-0.0018098659794231
0.14827277961039
-0.001962177146518
0.14832757835203
-0.0021185811373742
0.14839059817279
-0.0022807971864311
0.14846259709553
-0.0024461630924096
0.14854462460684
-0.0026184343316331
0.14863739696315
-0.0027917420496203
0.14874227774448
-0.0029750936092557
0.14885984973696
-0.0031553584771428
0.14899207206991
-0.0033527933222958
0.14913901015403
-0.0035370575143786
0.14930369657396
-0.0037533448692949
0.14948470838197
-0.0039319881638646
0.14968722299215
-0.0041765478972569
0.14990673605305
-0.0043275458583907
-0.0046225553941076
0.15015213424444
0.13969559658219
-5.3037572535378e-05
0.13969620200629
-0.00016615079530819
0.13969751682289
-0.00028042852992341
0.13969944715365
-0.00039444048211234
0.13970196084055
-0.00050847699602886
0.13970520476528
-0.0006238241540651
0.13970952058325
-0.00074198839495764
0.13971538318652
-0.00086412874699013
0.13972331628966
-0.0009907158241779
0.1397338399486
-0.0011218365750636
0.13974744398833
-0.0012571942582965
0.13976460863223
-0.0013967433824206
0.13978581804475
-0.0015402614480298
0.13981162414756
-0.0016883296200267
0.13984263212189
-0.0018408739697862
0.13987957784097
-0.0019991228815707
0.1399232105361
-0.0021622138481469
0.1399744423764
-0.0023320290421361
0.14003407280465
-0.0025057935354391
0.14010319082369
-0.0026875523648411
0.14018257979336
-0.0028711310324477
0.14027365760436
-0.0030661714323502
0.140377114097
-0.0032588149804839
0.1404949627978
-0.0034706420324256
0.14062747737023
-0.0036695720945604
0.14077763801873
-0.00390350552418
0.14094463410686
-0.0040989842571119
0.14113287926415
-0.0043647930588593
0.14133972491619
-0.0045343915146222
-0.0048547222418564
0.14157189175829
0.13185477618657
-5.2709057407524e-05
0.13185445506454
-0.00016582970571699
0.1318542207621
-0.00028019425996136
0.13185397185588
-0.00039419160675211
0.13185366790905
-0.00050817307772949
0.13185344759423
-0.00062360386542652
0.13185364622349
-0.00074218704797987
0.13185473122814
-0.00086521377330192
0.13185721911773
-0.0009932037334316
0.13186161982744
-0.0011262373029496
0.13186841562709
-0.0012639900748248
0.13187807506272
-0.0014064028341575
0.13189107735685
-0.0015532637576098
0.13190796348767
-0.0017052157660224
0.13192934127366
-0.0018622517706382
0.13195593925775
-0.0020257208803913
0.13198852329867
-0.0021947979034455
0.13202800579858
-0.0023715115560862
0.13207522428395
-0.0025530120341245
0.13213127919793
-0.0027436072913068
0.13219702194862
-0.0029368737943654
0.13227389185246
-0.0031430413459984
0.132362697014
-0.0033476201500284
0.13246543821301
-0.0035733832375554
0.13258266424336
-0.0037867981289437
0.13271709491343
-0.0040379361963459
0.13286882226469
-0.0042507116087886
0.13304120498911
-0.00453717578275
0.13323375232114
-0.00472693884629
-0.0050714857457122
0.13345051582377
0.12445403462963
-5.2097384768728e-05
0.12445285771193
-0.00016465283335055
0.12445119264084
-0.00027852923538545
0.12444892983028
-0.00039192884081447
0.12444601999799
-0.00050526328682691
0.12444259233188
-0.00062017623726792
0.12443897143444
-0.00073856618508935
0.12443560922826
-0.00086185159870386
0.12443300819817
-0.00099060273230154
0.12443166167609
-0.001124890807828
0.1244320397768
-0.0012643682008721
0.12443459085434
-0.0014089539360036
0.12443978459678
-0.0015584575235336
0.12444813747496
-0.0017135686672783
0.12446025608822
-0.0018743704065516
0.12447683948898
-0.0020423043035669
0.12449867200882
-0.0022166304452186
0.12452663238587
-0.0023994719545315
0.12456160980073
-0.0025879894694483
0.124604665571
-0.002786663080861
0.12465674418192
-0.0029889524228965
0.12471924588464
-0.0032055430643839
0.12479311544466
-0.0034214897233218
0.12488033891833
-0.0036606067219221
0.12498162190738
-0.0038880811259191
0.12509967117213
-0.0041559854663394
0.1252347568377
-0.0043857972772923
0.12539023660137
-0.004692655548079
0.12556663004908
-0.0049033322959011
-0.005271859619162
0.1257670039183
0.11746867636909
-5.1230030065087e-05
0.11746672008229
-0.00016269661552773
0.11746375398152
-0.00027556320632724
0.11745965980285
-0.00038783473209059
0.11745437708969
-0.0004999806398617
0.11744802600291
-0.00061382521246667
0.11744091939293
-0.00073145963296279
0.11743348538535
-0.00085441764541653
0.11742620488955
-0.00098332228775406
0.11741954880199
-0.0011182347692181
0.11741397083174
-0.0012587902777906
0.11740989334788
-0.0014048764980819
0.11740777410711
-0.001556338327803
0.11740809297665
-0.0017138875812536
0.1174114527357
-0.0018777302095143
0.11741849754671
-0.0020493491579767
0.11743003779238
-0.0022281707336255
0.11744687226193
-0.0024163064658977
0.11746997905006
-0.0026110962981073
0.11750029471654
-0.0028169787860738
0.11753893860768
-0.00302759635049
0.11758713104372
-0.0032537355340506
0.11764605186343
-0.003480410573491
0.11771759362124
-0.00373214850666
0.11780252192406
-0.0039730094520819
0.11790411171461
-0.0042575752765492
0.11802140248949
-0.0045030880687166
0.11816002711437
-0.0048312801875045
0.11831651369551
-0.0050598188916464
-0.0054570361283176
0.11850169018592
0.1108753951833
-5.0140397638924e-05
0.11087274411607
-0.00016004564955996
0.11086861664307
-0.00027143583852083
0.11086288818879
-0.00038210638128715
0.11085548811967
-0.000492580670157
0.11084651841851
-0.00060485560615031
0.11083627622472
-0.00072121752960129
0.11082516405637
-0.00084330556380189
0.11081364223933
-0.0009718005543978
0.11080215560215
-0.0011067482134905
0.11079113399361
-0.0012477687489368
0.11078096973357
-0.0013947123165687
0.11077210434196
-0.0015474730137186
0.11076497373773
-0.0017067570538795
0.11076017197941
-0.0018729285272542
0.11075827235988
-0.0020474496138137
0.11076011663567
-0.0022300150836509
0.11076638161408
-0.0024225715172457
0.11077817897626
-0.002622893731151
0.11079620545689
-0.0028350053350697
0.11082191209171
-0.0030533030501964
0.11085603746111
-0.0032878609644675
0.11090040138988
-0.0035247745587495
0.1109561300513
-0.0037878772200827
0.11102481891156
-0.0040416983594976
0.11110958211923
-0.0043423385266726
0.11120888026205
-0.0046023862495496
0.1113323567666
-0.0049547567272655
0.11146492881076
-0.005192390970437
-0.0056283382499092
0.11163623089068
0.10465219814101
-4.8872685311811e-05
0.1046489560945
-0.00015680373818995
0.10464380772285
-0.00026628760461518
0.10463663718737
-0.00037493598136193
0.10462739434842
-0.00048333796268983
0.10461615122964
-0.00059361261440438
0.10460314502068
-0.00070821144363118
0.1045887520964
-0.00082891275919208
0.10457342568227
-0.00095647425741444
0.10455758938258
-0.0010909120290346
0.10454164947113
-0.0012318289513899
0.10452597206706
-0.0013790350253082
0.10451097483839
-0.0015324758970326
0.10449704462433
-0.0016928269509119
0.10448474771218
-0.0018606317253549
0.10447458316154
-0.0020372851722167
0.10446740941172
-0.0022228414414615
0.10446377933101
-0.0024189415419948
0.1044649501578
-0.0026240646606175
0.10447131920414
-0.0028413744800665
0.10448479552277
-0.0030667794627175
0.10450529795465
-0.0033083634843848
0.10453592746152
-0.0035554041477305
0.10457568418341
-0.003827634017861
0.1046293357659
-0.0040953500119294
0.10469520194858
-0.0044082047729017
0.10477841783589
-0.0046856021948788
0.10488327346634
-0.0050596124117061
0.1050009649851
-0.0053100825424711
-0.0057819462441258
0.10515457291458
0.098778293160554
-4.7447718429587e-05
0.098774580541267
-0.00015309127602057
0.098768531139255
-0.00026023836089155
0.098760084353181
-0.00036648935122706
0.098749224255368
-0.00047247801722388
0.098736074370191
-0.00058046287802577
0.098720694484064
-0.00069283170325386
0.098703459140948
-0.00081167755967241
0.098684802369468
-0.00093781762800721
0.098665112656481
-0.0010712224572908
0.098644780398661
-0.0012114968341692
0.098624162018997
-0.0013584167859128
0.09860364608075
-0.0015119600985171
0.098583581156869
-0.0016727621663055
0.098564484542412
-0.0018415352492332
0.098546790024012
-0.0020195907910861
0.098531311903405
-0.0022073634561816
0.098518520426616
-0.0024061501979625
0.098509719763705
-0.0026152641263086
0.098505131830519
-0.0028367866700874
0.098506954597136
-0.0030686023453098
0.098514466733794
-0.0033158757290862
0.098531917514216
-0.0035728550276153
0.098555996618561
-0.0038517132135798
0.098595744032175
-0.0041350975088071
0.098641166006396
-0.0044536268224033
0.098711312532027
-0.0047557487884454
0.098782549432998
-0.005130849376544
0.098890425654914
-0.0054179588301483
0.099056218885977
-0.0059477395537768
0.39458005896179
0.0046521119159982
0.39008676707054
0.0044932918449307
0.38575679379522
0.0043299732293605
0.38159451489811
0.0041622788508638
0.3776041630217
0.0039903518297709
0.37378982994249
0.0038143330317993
0.37015545805933
0.0036343718351302
0.36670483012156
0.0034506278888488
0.36344156264327
0.0032632674287167
0.36036910229561
0.0030724602971876
0.35749072262791
0.0028783796166324
0.35480952035438
0.0026812022216153
0.35232841122515
0.0024811090768058
0.35005012592825
0.0022782852437121
0.34797720595716
0.0020729199175039
0.34611199978124
0.0018652061216705
0.34445665930441
0.0016553404223034
0.34301313664841
0.0014435226008987
0.34178318111232
0.001229955480833
0.34076833611229
0.0010148449442653
0.3399699357986
0.0007984002578423
0.33938910017064
0.00058083557164078
0.33902672535339
0.0003623747608831
0.33888344236943
0.0001432829271091
0.33895974700241
-7.6304689875268e-05
0.33925609952102
-0.00029635257601475
0.3397723949084
-0.00051629544484553
0.34050842998353
-0.00073603513310159
0.34146378588262
-0.0009553559570922
0.34263781506271
-0.0011740292385575