/*--------------------------------*- C++ -*----------------------------------*\
| =========                 |                                                 |
| \\      /  F ield         | OpenFOAM: The Open Source CFD Toolbox           |
|  \\    /   O peration     | Version:  2112                                  |
|   \\  /    A nd           | Website:  www.openfoam.com                      |
|    \\/     M anipulation  |                                                 |
\*---------------------------------------------------------------------------*/
FoamFile
{
    version     2.0;
    format      ascii;
    arch        "LSB;label=32;scalar=64";
    class       surfaceScalarField;
    location    "15.7";
    object      phi;
}
// * * * * * * * * * * * * * * * * * * * * * * * * * * * * * * * * * * * * * //

dimensions      [0 3 -1 0 0 0 0];

oriented        oriented;

internalField   nonuniform List<scalar> 
43645
(
0.39512394567867
-5.0725781459439e-06
0.3951390173885
-1.5071666202962e-05
0.39516400156379
-2.4984128110004e-05
0.39519887464428
-3.4873031773431e-05
0.3952436080123
-4.4733319121122e-05
0.39529816449298
-5.4556432344191e-05
0.39536250393256
-6.4339392213812e-05
0.39543658734199
-7.4083363191909e-05
0.39552037257801
-8.3785191065319e-05
0.395613813333
-9.3440711287303e-05
0.39571685286417
-0.00010303948878839
0.39582943023294
-0.0001125773276494
0.39595147004121
-0.00012203976844808
0.39608289673979
-0.0001314266599475
0.39622361119263
-0.00014071441540308
0.396373527206
-0.00014991597698891
0.39653252086028
-0.00015899361895227
0.39670051422163
-0.00016799332688152
0.39687735108316
-0.00017683682788933
0.39706298106734
-0.00018562995118425
0.39725716616241
-0.00019418506266627
0.39745990866764
-0.00020274247322023
0.39767078369994
-0.00021087500062805
0.39788994320984
-0.00021915947835642
0.39811658924056
-0.0002266459992845
0.39835129859664
-0.00023470932455108
0.39859250375946
-0.0002412051311753
0.39884184204217
-0.00024933825119353
0.39909604407489
-0.00025420200158057
-0.00026313820578963
0.39935918231259
0.37294725685317
-9.7746232181605e-06
0.3729612806675
-2.9095408047994e-05
0.37298473270785
-4.8436094679165e-05
0.37301758872382
-6.7728974089697e-05
0.37305981840516
-8.6962927808453e-05
0.37311139219026
-0.00010613014615779
0.37317228245838
-0.00012522959066336
0.37324246367562
-0.00014426451239929
0.37332190642064
-0.00016322786979528
0.37341057659455
-0.00018211082061174
0.37350843014265
-0.00020089297406077
0.37361541997328
-0.00021956709713843
0.37373148608714
-0.00023810582287308
0.37385656968116
-0.00025651019610283
0.37399058978924
-0.00027473446719835
0.37413347903294
-0.00029280516577002
0.37428513321893
-0.0003106477513638
0.37444549339467
-0.00032835345014983
0.37461442317018
-0.00034576655197039
0.37479188974926
-0.00036309647962154
0.37497767578156
-0.00037997104504442
0.37517179988307
-0.000396866525266
0.3753738626219
-0.00041293769040053
0.37558403036504
-0.00042932717256188
0.37580154218136
-0.00044415776678115
0.37602698171972
-0.00046014881391689
0.37625884481984
-0.00047306818215879
0.37649875338222
-0.00048924676472706
0.37674356621881
-0.00049901479064714
-0.00051688296574248
0.37699731102791
0.35201545249105
-1.4329518753857e-05
0.35202899164933
-4.2634491632188e-05
0.35205151152274
-7.0955893176826e-05
0.35208300766209
-9.9225039433244e-05
0.3521234653024
-0.00012742049568678
0.35217286688092
-0.00015553165401588
0.35223119837586
-0.00018356101691399
0.35229845000528
-0.00021151607507213
0.35237460884134
-0.00023938664116156
0.35245965795386
-0.00026715987040303
0.35255357143099
-0.00029480639051767
0.35265632265349
-0.00032231826087117
0.35276787393148
-0.00034965704405814
0.35288819189405
-0.00037682810359248
0.35301722180806
-0.00040376432786295
0.35315492559173
-0.00043050889755827
0.3533012259413
-0.00045694805047992
0.35345609403899
-0.00048322149846818
0.35361941616047
-0.00050908862511844
0.35379118981746
-0.00053487008897643
0.35397121367981
-0.00055999486037423
0.35415954303955
-0.00058519583825939
0.35435578572841
-0.00060918033274201
0.35456016235072
-0.00063370374821954
0.35477189819613
-0.0006558935654005
0.35499166438687
-0.00067991495739084
0.35521788687971
-0.00069929062727496
0.35545233923886
-0.00072369907608052
0.35569167766247
-0.00073835316760772
-0.00076540174162271
0.35594019648713
0.33225842579314
-1.8711288576627e-05
0.33227143711196
-5.5645743270329e-05
0.3322930540937
-9.2572807485156e-05
0.33232327270838
-0.00012944358742623
0.33236208572108
-0.00016623344304667
0.33240948963126
-0.00020293550038085
0.33246548890977
-0.0002395602333226
0.3325300940616
-0.00027612116648015
0.33260331236922
-0.00031260489017658
0.33268514778334
-0.00034899522764429
0.33277559672141
-0.00038525527355209
0.33287465831948
-0.000421379805582
0.33298232318378
-0.0004573218567633
0.333098590657
-0.00049309552675744
0.33322343968639
-0.00052861330875553
0.33335687036266
-0.00056393952663548
0.33349884000412
-0.0005989176460264
0.3336493594541
-0.00063374090350112
0.333808343693
-0.0006680728200201
0.33397583042359
-0.00070235677617547
0.33415163711095
-0.00073580150493076
0.33433586818685
-0.00076942687159991
0.3345281366067
-0.00080144871027277
0.33472873745638
-0.0008343045554964
0.33493687071431
-0.00086402678084653
0.33515333359416
-0.00089637779436123
0.33537645244533
-0.00092240943523997
0.3356082367672
-0.00095548335479259
0.33584507931847
-0.00097519567688814
-0.0010120825209048
0.33609176014175
0.31361026170128
-2.2915553528463e-05
0.31362273046179
-6.8114444297293e-05
0.3136434309028
-0.00011327318905359
0.31367236575945
-0.00015837838552592
0.31370953635725
-0.00020340398372519
0.31375495411084
-0.00024835319837869
0.31380864461834
-0.00029325068696645
0.31387064255012
-0.00033811904607886
0.31394097953023
-0.00038294181991928
0.31401968461239
-0.00042770026112333
0.31410678099132
-0.00047235160561761
0.3142022987531
-0.00051689752212282
0.31430626256712
-0.0005612856272224
0.3144187112442
-0.00060554416172453
0.31453966435927
-0.00064956638317341
0.31466916819916
-0.00069344332702315
0.31480722212492
-0.0007369715334445
0.3149538855753
-0.00078040431633755
0.3151091091668
-0.00082329637476658
0.31527298073457
-0.00086622830761083
0.31544534203414
-0.00090816276857365
0.31562635905151
-0.00095044385309002
0.31581565273177
-0.00099074235470873
0.31601361078664
-0.0010322625742348
0.31621940467002
-0.0010698206278137
0.31643398714994
-0.0011109602372701
0.31665556601042
-0.001143988258183
0.31688643601584
-0.0011863533224511
0.31712266636902
-0.0012114259931301
-0.0012590224801873
0.31736960636747
0.29600871639245
-2.6930034565276e-05
0.2960206051963
-8.0003193981617e-05
0.29604032598816
-0.00013299392686326
0.29606789132964
-0.0001859436737748
0.29610331336535
-0.00023882596744242
0.29614662055667
-0.00029166033902486
0.2961978622717
-0.00034449235281286
0.29625710055897
-0.00039735728559092
0.29632439488081
-0.00045023609557872
0.2963998031564
-0.0005031084919911
0.29648337943182
-0.00055592783789833
0.29657518944049
-0.00060870748906701
0.29667529715113
-0.00066139329763637
0.29678378693123
-0.00071403390287204
0.29690072545348
-0.00076650486778609
0.29702621258308
-0.00081893042001618
0.2971602969459
-0.00087105586072727
0.29730309485274
-0.00092320218838428
0.29745459977838
-0.00097480126637814
0.29761495879119
-0.0010265872868192
0.29778404468078
-0.0010772486250132
0.29796209578614
-0.0011284949254264
0.2981487467298
-0.0011773932655027
0.29834449192049
-0.0012280077319059
0.2985484767782
-0.0012738054524016
0.29876182891841
-0.0013243123439667
0.29898263144782
-0.0013647907537919
0.29921349340756
-0.0014172152483793
0.2994501368568
-0.0014480694094715
-0.0015074125897658
0.2996985270013
0.2793950374074
-3.0732877666091e-05
0.27940627752397
-9.1243264008082e-05
0.27942490946409
-0.00015162582069564
0.27945095641674
-0.00021199058092622
0.27948444234192
-0.00027231184828099
0.27952541412603
-0.00033263208000219
0.27957394675597
-0.00039302494097162
0.27963013191838
-0.0004535424075189
0.27969405944227
-0.0005141635804058
0.27976581901095
-0.00057486802291788
0.27984549884752
-0.00063560763813654
0.27993320423056
-0.00069641283702219
0.28002904286333
-0.00075723189666901
0.28013314978982
-0.00081814079672497
0.28024564440003
-0.00087899944651865
0.28036668646761
-0.00093997245700395
0.28049638049358
-0.0010007498570167
0.28063490695567
-0.0010617286214047
0.28078230943468
-0.0011222037169535
0.28093880237324
-0.0011830801972619
0.28110429743253
-0.0012427436565225
0.2812791146574
-0.0013033121225443
0.28146291100232
-0.0013611895827365
0.28165629847944
-0.0014213951811039
0.28185840575324
-0.0014759126981029
0.28207054769762
-0.0015364542598056
0.2822906923661
-0.0015849353933793
0.28252177643891
-0.0016482992921743
0.28275918542246
-0.0016854783647024
-0.0017577422061944
0.28300951506923
0.26371377377392
-3.4297162436365e-05
0.26372427622323
-0.00010174567223372
0.26374168030549
-0.00016902986210565
0.26376601848154
-0.00023632871676672
0.26379732679571
-0.00030362012317935
0.26383567167792
-0.00037097692387633
0.26388115508507
-0.00043850831086796
0.26393389958346
-0.00050628686966596
0.26399402667896
-0.00057429064081513
0.26406165944185
-0.00064250075174431
0.26413692237871
-0.00071087054211407
0.26421996300939
-0.00077945343582443
0.2643109361215
-0.00084820497802509
0.26441003135827
-0.00091723600366133
0.26451742539612
-0.00098639345553905
0.26463334296136
-0.0010558899941703
0.26475795019912
-0.0011253570675377
0.26489149778592
-0.0011952761815196
0.26503408645157
-0.001264792356544
0.2651860049157
-0.0013349986356677
0.26534721251418
-0.0014039512296772
0.26551811863999
-0.0014742182231743
0.26569841414865
-0.0015414850664108
0.26588883625262
-0.0016118172600311
0.26608851296547
-0.0016755893859523
0.26629895113799
-0.0017468924071171
0.26651802794156
-0.001804012171656
0.26674900277208
-0.0018792740975214
0.26698696562126
-0.0019234411894823
-0.0020098905196356
0.26723911396079
0.24891258789769
-3.7592337159972e-05
0.24892226004999
-0.00011141778996369
0.24893828600138
-0.00018505577916606
0.24896070753079
-0.0002587502123656
0.24898957246803
-0.00033248502739363
0.24902496656088
-0.00040637098443925
0.24906701891942
-0.00048056063801387
0.24911588368394
-0.00055515160357586
0.24917171502691
-0.00063012195411515
0.24923467021662
-0.00070545591259428
0.24930491095252
-0.00078111125010635
0.24938262829962
-0.00085717075581046
0.24946802600456
-0.0009336026567718
0.24956135060385
-0.0010105605774802
0.24966283920594
-0.0010878820329741
0.24977278487301
-0.0011658356371871
0.24989141998089
-0.0012439921520421
0.25001906974682
-0.0013229259245115
0.25015589852354
-0.0014016211108418
0.25030227445562
-0.0014813745455799
0.25045821394265
-0.0015598906948744
0.25062422104954
-0.0016402253083094
0.25080003474272
-0.0017172987380165
0.25098652069825
-0.0017983031939172
0.25118282881045
-0.0018718974765501
0.25139065356539
-0.001954717140267
0.25160781999414
-0.002021178578568
0.25183788526196
-0.0021093393436256
0.25207571696743
-0.0021612728739188
-0.0022632149053275
0.25232904137575
0.23494208329174
-4.0588040526481e-05
0.23495083522394
-0.00012016969242013
0.23496533478859
-0.00019955531423504
0.23498563301914
-0.00027904841370305
0.23501178907943
-0.0003586410590398
0.2350439073964
-0.00043848927328005
0.23508214341979
-0.00051879663390501
0.23512668185575
-0.00059969001258264
0.23517770863547
-0.00068114870755922
0.23523541495348
-0.00076316220490122
0.23530000003556
-0.00084569630718728
0.23537169846197
-0.00092886915780834
0.23545076321651
-0.0010126673875923
0.23553749826065
-0.0010972955984485
0.23563220254196
-0.0011825862917712
0.23573523879934
-0.0012688718725337
0.23584690869111
-0.0013556620223391
0.2359676142299
-0.0014436314422183
0.23609758892836
-0.0015315957886783
0.23623728326182
-0.0016210688586805
0.23638678024403
-0.0017093876570846
0.23654668095362
-0.0018001259980652
0.23671678875132
-0.0018874065161248
0.23689809605945
-0.0019796104825235
0.23708980324959
-0.0020636046473372
0.23729377824314
-0.0021586921144668
0.23750784699755
-0.0022352473137608
0.23773581910383
-0.0023373114309726
0.23797244482048
-0.0023978985723724
-0.0025166327645737
0.23822586269922
0.2217556382906
-4.3256517401168e-05
0.22176338863982
-0.0001279200167262
0.22177622701549
-0.00021239366510572
0.22179421309213
-0.00029703446578591
0.221817416421
-0.00038184436375423
0.22184595869157
-0.0004670315200273
0.22188001991469
-0.00055285783363518
0.22191981337879
-0.0006394834536405
0.22196555492153
-0.00072689022772483
0.22201746765605
-0.00081507491719437
0.22207578649931
-0.00090401512873544
0.22214078826877
-0.0009938709059148
0.22221277443942
-0.0010846535374137
0.22229210479792
-0.0011766259364739
0.22237913962371
-0.001269621097586
0.22247431042425
-0.0013640426534222
0.22257798932798
-0.0014593409068632
0.22269065491777
-0.0015562970130863
0.22281261406564
-0.0016535549180008
0.22294439979336
-0.0017528545680742
0.22308617094285
-0.0018511587885497
0.22323862451411
-0.001952579551433
0.22340164614234
-0.0020504281267152
0.22357634767852
-0.0021543120011437
0.2237620139385
-0.0022492708899561
0.2239606619257
-0.0023573400843535
0.22417018512176
-0.0024447704926839
0.22439457962012
-0.0025617059125237
0.22462861397671
-0.0026319329128531
-0.0027686983259649
0.22488067955536
0.2093092499367
-4.5574483913491e-05
0.20931593119642
-0.00013460125519366
0.20932699630213
-0.00022345874959892
0.20934251242316
-0.00031255056571454
0.2093625580158
-0.00040188993554203
0.20938726993672
-0.00049174342024177
0.20941685011332
-0.00058243798978818
0.20945153735153
-0.00067417067155374
0.20949157436815
-0.00076692722432536
0.20953721302566
-0.00086071355485183
0.2095887209755
-0.00095552305903915
0.20964641373277
-0.0010515636438383
0.20971063823108
-0.0011488780167081
0.20978180731771
-0.0012477950043152
0.20986034027344
-0.0013481540348765
0.2099467339213
-0.0014504362830563
0.21004143003271
-0.0015540370004084
0.21014498087169
-0.001659847834419
0.2102577691877
-0.0017663432166858
0.21038040772948
-0.0018754930927404
0.21051313958612
-0.0019838906283856
0.21065675270648
-0.0020961926551641
0.21081123369819
-0.0022049091020692
0.21097780066213
-0.0023208789488961
0.21115586127462
-0.0024273314865219
0.21134754682577
-0.002549025619741
0.21155089687287
-0.0026481205242952
0.21177000824875
-0.0027808172733229
0.21199983132305
-0.0028617559727803
-0.0030176770275877
0.21224881004003
0.19756138662989
-4.7524566705553e-05
0.19756694930841
-0.00014016391563995
0.19757615866279
-0.00023266808586233
0.19758908786062
-0.00032547974545609
0.19760582238063
-0.00041862443758056
0.19762651154739
-0.00051243256905593
0.19765137575442
-0.00060730217898262
0.19768067531403
-0.00070347021333425
0.19771467578337
-0.00080092767596781
0.19775365346109
-0.00089969121488646
0.19779790453829
-0.00099977411870406
0.19784777837287
-0.0011014374609355
0.19790366277125
-0.0012047623977943
0.19796601790735
-0.0013101501232021
0.1980353180964
-0.001417454206932
0.19811212030717
-0.0015272384769616
0.19819693275465
-0.0016388494312747
0.19829037580921
-0.0017532908725151
0.19839290868937
-0.0018688760806655
0.19850521783398
-0.0019878022213452
0.19862763774119
-0.0021063105198717
0.19876103825312
-0.0022295931515638
0.19890552574482
-0.0023493965785261
0.19906240541835
-0.0024777586073826
0.19923124931779
-0.0025961753712122
0.19941425829217
-0.002732034579583
0.19960970628575
-0.0028435685036243
0.19982168659142
-0.0029927975651985
0.20004551875576
-0.0030855881239869
-0.0032616207423923
0.2002894624846
0.18647284897327
-4.9096155151461e-05
0.1864772641204
-0.00014457904701201
0.18648456922348
-0.00023997317306312
0.18649484166129
-0.00033575216733749
0.18650817169281
-0.00043195445319321
0.18652471798069
-0.00052897884096595
0.18654471528005
-0.00062729946237844
0.18656844069829
-0.00072719561552997
0.18659617771347
-0.00082866467511023
0.18662822187204
-0.00093173535733637
0.18666489256868
-0.0010364447992487
0.18670656691919
-0.0011431117952892
0.18675366760862
-0.001251863071141
0.18680669493428
-0.0013631774327586
0.18686617190585
-0.0014769311625142
0.18693270772864
-0.0015937742838029
0.18700687273593
-0.001713014422805
0.18708934709733
-0.0018357652182639
0.18718066489269
-0.0019601938606263
0.18728157717896
-0.002088714492394
0.18739251529563
-0.002217248621613
0.18751441773255
-0.0023514955737991
0.18764752861467
-0.002482507446282
0.18779321544204
-0.0026234454206665
0.18795125765344
-0.0027542175688536
0.18812387191122
-0.0029046488238901
0.18830966197489
-0.0030293585541628
0.1885125974809
-0.0031957330585494
0.18872857265961
-0.0033015632906452
-0.0034984423801929
0.18896539431029
0.17600663845758
-5.0285839617859e-05
0.1760098987853
-0.00014783936066954
0.17601528692596
-0.00024536129951598
0.17602288250137
-0.00034334772843067
0.17603277820817
-0.00044185014566704
0.17604513864886
-0.00054133926721684
0.17606020840205
-0.00064236920111085
0.1760782761718
-0.0007452633706978
0.17609963780019
-0.00085002628888467
0.17612460226934
-0.00095669981172066
0.17615350591882
-0.0010653484339387
0.17618674665083
-0.0011763525123629
0.17622477472366
-0.0012898911290283
0.17626812206317
-0.0014065247572117
0.17631735263948
-0.0015261617238138
0.17637311793806
-0.001649539567336
0.17643604339307
-0.0017759398628946
0.1765068589616
-0.0019065807719499
0.17658617001256
-0.0020395048969694
0.17667478024983
-0.0021773247152454
0.17677322106629
-0.0023156894239768
0.17688248275419
-0.0024607572478989
0.17700296347248
-0.0026029881511411
0.1771360627746
-0.0027565447097174
0.17728180992506
-0.0028999647066267
0.17744237639306
-0.003065215279559
0.17761679470922
-0.0032037768583593
0.17780877841093
-0.0033877167487674
0.17801501390636
-0.0035077987751114
-0.0037259920189382
0.17824256355689
0.16612783356042
-5.1097408047206e-05
0.1661299531066
-0.00014995889392695
0.16613344687384
-0.00024885505367163
0.16613839490909
-0.00034829575049832
0.16614488977318
-0.00044834499658604
0.16615309847784
-0.00054954795864159
0.16616327076641
-0.00065254147646841
0.16617570149547
-0.00075769408646513
0.16619069304788
-0.00086501782800952
0.16620856161879
-0.00097456836922879
0.16622965373639
-0.0010864405380903
0.16625438046091
-0.001201079223293
0.16628321139417
-0.0013187220486242
0.16631670066952
-0.0014400140187523
0.16635544407242
-0.0015649051128778
0.16640012425894
-0.0016942197399423
0.16645141314606
-0.0018272287361745
0.16651007766462
-0.0019652452767372
0.16657678924658
-0.0021062164653832
0.1666523902125
-0.0022529256678501
0.16673751249625
-0.0024008116947781
0.16683317869613
-0.002556423435232
0.16693995437716
-0.0027097638200871
0.16705923723085
-0.002875827551791
0.1671913458606
-0.0030320733252539
0.16733833946277
-0.0032122088710621
0.16749977679968
-0.0033652141849963
0.16767897589755
-0.0035669158368372
0.16787363720007
-0.0037024600682394
-0.003942129366596
0.16808977455795
0.15680347249135
-5.1541198101607e-05
0.1568044856818
-0.00015097207216729
0.15680614105435
-0.00025051041392461
0.15680851702029
-0.00035067170417325
0.15681170401457
-0.00045153197874661
0.15681586799542
-0.00055371192747274
0.15682125919198
-0.00065793266119173
0.15682817313279
-0.00076460801554869
0.15683691293913
-0.00087375762277656
0.15684779564959
-0.00098545106812905
0.15686117108718
-0.0010998159641593
0.15687745546467
-0.0012173635891659
0.1568971291405
-0.0013383957127825
0.15692075841999
-0.0014636432864041
0.15694896086005
-0.001593107541037
0.15698243839193
-0.0017276972598162
0.15702189920322
-0.0018666895354956
0.15706813384954
-0.0020114799111553
0.15712187143154
-0.0021599540357021
0.15718397759654
-0.0023150318214686
0.15725518228792
-0.0024720163752148
0.15733651949026
-0.002637760627152
0.15742873073918
-0.0028019750591785
0.15753317764941
-0.0029802744528435
0.15765050223986
-0.0031493979071427
0.15778258254868
-0.0033442891719285
0.15792959246592
-0.0035122240947575
0.15809431107778
-0.0037316344416607
0.15827566916415
-0.0038838181477869
-0.0041447904886303
0.15847833029386
0.14800244322428
-5.1633481327073e-05
0.14800240208843
-0.00015093092428461
0.14800230389353
-0.0002504122070876
0.14800222440685
-0.00035059220588044
0.14800224975708
-0.00045155731784609
0.14800254147741
-0.00055400363712639
0.14800334578828
-0.00065873696193166
0.14800495365707
-0.00076621587465304
0.14800766351881
-0.00087646747528992
0.14801178712681
-0.00098957466718084
0.14801767083115
-0.0011056996597719
0.14802572791153
-0.0012254206608647
0.14803644077438
-0.0013491085669575
0.14805037771258
-0.0014775802157907
0.14806816741097
-0.0016108972305482
0.14809051914201
-0.0017500489818519
0.1481181655493
-0.0018943359337975
0.14815190804171
-0.0020452223946458
0.14819252202772
-0.0022005680130428
0.14824088247063
-0.0023633922560706
0.14829780824657
-0.0025289421433998
0.1483643271405
-0.0027042795139896
0.14844135437803
-0.0028790022904104
0.14853018669814
-0.0030691067675097
0.14863181148367
-0.0032510226880783
0.14874786754147
-0.0034603452259442
0.14887921887596
-0.0036435754260408
0.14902796170243
-0.003880377265359
0.1491944511512
-0.0040503075937206
-0.0043320408928217
0.14938170155908
0.13969537929469
-5.1395504283007e-05
0.13969434986122
-0.00014990147771597
0.13969260757878
-0.00024866991183506
0.13969022373388
-0.00034820834899
0.13968727836457
-0.00044861193762881
0.13968392574108
-0.00055065100380387
0.13968040407741
-0.0006552152895502
0.13967699474652
-0.00076280653605132
0.13967398635163
-0.00087345907360516
0.13967167961254
-0.00098726792195726
0.1396704113234
-0.0011044313650239
0.13967058434343
-0.0012255936755242
0.13967267476425
-0.0013511989825323
0.1396772429222
-0.0014821483684412
0.13968491750106
-0.0016185718040419
0.13969640374462
-0.0017615352199371
0.13971244520503
-0.001910377388725
0.13973384323385
-0.0020666204180766
0.13976140367551
-0.0022281284495909
0.13979600262588
-0.0023979912017889
0.13983852848345
-0.0025714679969917
0.13988999749997
-0.0027557485274064
0.13995147395351
-0.0029404787418649
0.14002418196593
-0.0031418147790117
0.14010943427979
-0.003336275002154
0.14020861277819
-0.0035595237256682
0.14032331088397
-0.003758273533918
0.1404548456283
-0.0040119120122178
0.14060514226768
-0.0042006042352312
-0.0045021216387796
0.14077522301238
0.13185456153281
-5.0852292459855e-05
0.13185262158962
-0.00014796151727553
0.13184936401008
-0.00024541231522484
0.13184485412684
-0.00034369845006715
0.13183916415862
-0.00044292195564087
0.13183243876446
-0.00054392559780961
0.13182490536108
-0.00064768187627107
0.13181683165593
-0.00075473282271618
0.13180849165419
-0.00086511906516723
0.13180016897561
-0.00097894523782859
0.13179218528099
-0.0010964476656993
0.13178492625041
-0.0012183346407345
0.13177885458712
-0.0013451273152945
0.13177451308359
-0.0014778068610131
0.13177252009772
-0.0016165788142411
0.13177356565924
-0.0017625807774461
0.13177839050774
-0.0019152022332399
0.13178778631147
-0.0020760162179527
0.13180256931928
-0.002242911453902
0.13182361573231
-0.0024190376119112
0.1318518489505
-0.0025997012131339
0.13188829468703
-0.0027921942630204
0.13193410025309
-0.0029862843083562
0.13199047607694
-0.003198190604842
0.13205893022113
-0.0034047291498669
0.13214068706148
-0.0036412805710692
0.13223791877808
-0.0038555052566809
0.13235131323698
-0.0041253064777662
0.13248437686003
-0.0043336678642557
-0.0046535779087112
0.13263583312505
0.12445382421892
-5.0030149335038e-05
0.12445105777511
-0.00014519504602543
0.12444642685668
-0.0002407813686571
0.12443998971597
-0.00033726128288466
0.1244318081429
-0.00043474035878966
0.12442201387596
-0.0005341313099642
0.12441082116723
-0.00063648914944627
0.12439848236414
-0.00074239400396649
0.12438525407569
-0.0008518907631507
0.12437139712275
-0.00096508827289223
0.12435721315877
-0.0010822636908975
0.12434306367565
-0.0012041851475221
0.12432939222931
-0.0013314558592957
0.12431671365594
-0.0014651282781313
0.12430562870952
-0.0016054938583853
0.12429679848687
-0.0017537505453663
0.12429095207141
-0.0019093558084586
0.12428885749995
-0.0020739216374346
0.12429132710444
-0.0022453810498578
0.12429923292418
-0.0024269434239435
0.12431349390445
-0.0026139621868585
0.12433518223503
-0.0028138825885829
0.12436541674109
-0.0030165188112084
0.12440556200203
-0.0032383358646327
0.12445702117063
-0.0034561883194411
0.1245212727388
-0.0037055321423171
0.12460031835073
-0.0039345508733125
0.12469504656225
-0.0042200346947359
0.12480973584797
-0.0044483571546696
-0.0047857633845329
0.12494192132073
0.11746847028403
-4.8956616718666e-05
0.11746496281306
-0.00014168752875646
0.11745910586474
-0.00023492437208243
0.11745095006176
-0.00032910543323236
0.11744054690543
-0.00042433715895292
0.11742801161531
-0.00052159597990254
0.11741353935743
-0.00062201685508558
0.11739736570581
-0.00072622031886724
0.11737972844159
-0.00083425346794727
0.11736086217062
-0.00094622197281358
0.11734104696038
-0.0010624484529389
0.11732061376982
-0.0011837519301445
0.11729998200687
-0.0013108240701139
0.11727962704196
-0.0014447732873129
0.11726012975937
-0.0015859965500915
0.11724210324879
-0.0017357240092852
0.11722626660735
-0.0018935191418132
0.11721333447342
-0.0020609894788375
0.11720412730764
-0.0022361738602284
0.117199473408
-0.0024222895017156
0.11720029691232
-0.0026147856702495
0.11720769143354
-0.0028212770910432
0.11722268184243
-0.0030315092037638
0.11724693065751
-0.0032625846661752
0.11728137271214
-0.0034906303633741
0.11732858564438
-0.0037527450667684
0.11738886975826
-0.0039948349817838
0.11746554885556
-0.0042967137879704
0.11755924735466
-0.004542055649213
-0.0048999503211261
0.11767343429883
0.11087519318676
-4.7664844298864e-05
0.11087103689677
-0.00013753116634885
0.11086410530516
-0.00022799270509432
0.11085443868836
-0.0003194387426157
0.11084208486105
-0.00041198326128618
0.11082714530996
-0.00050665636238876
0.11080978844326
-0.0006046599257035
0.11079022788686
-0.00070665970298159
0.11076867882488
-0.00081270434905941
0.11074534933636
-0.00092289242930809
0.11072049948561
-0.0010375985486413
0.11069442520814
-0.0011576776000984
0.11066751627083
-0.0012839150809221
0.11064019895646
-0.0014174559215336
0.11061303412164
-0.0015588316643013
0.11058656871869
-0.0017092585557902
0.1105615233403
-0.0018684737135263
0.1105385168294
-0.0020379829189374
0.1105184252446
-0.0022160822278139
0.11050193168163
-0.0024057958930201
0.11049009064428
-0.0026029445897051
0.1104837991569
-0.0028149855634817
0.11048422743357
-0.0030319374437191
0.11049298573278
-0.0032713429322878
0.11051072805089
-0.0035083726522435
0.11054132761384
-0.0037833446043955
0.11058258324434
-0.0040360905904771
0.11064407852472
-0.0043582090487698
0.11071274526123
-0.0046107223662446
-0.0049991131600105
0.11081190812448
0.10465199836119
-4.619714989662e-05
0.10464730807665
-0.00013284078152527
0.10463946225109
-0.00022014677739813
0.10462849612008
-0.00030847251141834
0.10461445690443
-0.00039794394897626
0.10459743750337
-0.00048963686852474
0.10457759029863
-0.00058481263169389
0.10455509225885
-0.00068416157687799
0.10453011934641
-0.00078773135257884
0.10450287232901
-0.00089564532956488
0.10447359233202
-0.0010083184705517
0.10444253293846
-0.0011266181263654
0.10441004911736
-0.0012514311803594
0.10437651527242
-0.0013839219977819
0.10434246293007
-0.0015247792437494
0.10430836254289
-0.0016751580912121
0.10427493753283
-0.001835048627058
0.10424268671519
-0.0020057320264255
0.10421258916663
-0.0021859846064538
0.10418507594367
-0.0023782826002511
0.10416153146358
-0.0025794000434578
0.10414225187386
-0.0027957059120745
0.10412925275903
-0.003018938271845
0.10412280869982
-0.0032648988209672
0.1041252590063
-0.0035108229115971
0.10413826472998
-0.0037963502862573
0.10416154255412
-0.0040593683775641
0.10420735010419
-0.0044040165651399
0.10425553263707
-0.0046589048660416
-0.0050845758265329
0.10434099534451
0.098778094400576
-4.4573173530278e-05
0.098773007289056
-0.00012775355148823
0.098764398268397
-0.00021153763755281
0.098752354427704
-0.00029642855369239
0.098736903728686
-0.00038249313608417
0.098718103113404
-0.00047083614258244
0.098696154458008
-0.00056286386841763
0.098671208695531
-0.00065921570863483
0.098643284797512
-0.00075980735030944
0.098612664146677
-0.00086502457547535
0.098579558753567
-0.00097521297489761
0.098544172962685
-0.0010912322334273
0.098506824247224
-0.0012140823633373
0.09846784701961
-0.0013449446690678
0.098427723818608
-0.0014846559423274
0.098386853204989
-0.0016342873780109
0.098345920986102
-0.0017941163099793
0.098305327742934
-0.0019651386870555
0.098266097645213
-0.0021467544156503
0.098228448728352
-0.0023406335945204
0.098194076851047
-0.002545028082804
0.098162594665904
-0.002764223649784
0.098137209312499
-0.0029935528479334
0.098115865835717
-0.0032435552802516
0.098105097584162
-0.0035000546028568
0.09809868699162
-0.0037899396435319
0.098109011916611
-0.0040696932587772
0.098122824786848
-0.004417829395378
0.098156671496515
-0.0046927515348099
0.098262548374781
-0.0051904526548517
0.39471932939534
0.0046398529494977
0.39023890895974
0.0044804204673083
0.38592239902554
0.0043165099658611
0.38177416210431
0.0041482369532233
0.37779841940492
0.0039757427318397
0.37399925124826
0.0037991681897469
0.37038058803525
0.0036186632466733
0.36694620037811
0.0034343876914774
0.36369969233579
0.0032465080771961
0.36064449738075
0.0030551949905541
0.35778387542575
0.002860621990967
0.35512090977927
0.0026629656829637
0.35265850366872
0.0024624061473709
0.35039937638771
0.0022591273182294
0.3483460593787
0.0020533170464164
0.3465008924802
0.0018451669361656
0.34486602033237
0.0016348721855237
0.34344338889121
0.001422631478968
0.34223474186302
0.0012086470658966
0.34124161703661
0.00099312486411151
0.34046534189332
0.00077627518077969
0.33990702770768
0.00055831422305794
0.33956755694893
0.00033947079587949
0.33944752757982
0.00012002940612731
0.33954750884715
-9.9981230606946e-05
0.33986786138146
-0.00032035249769119
0.34040848938212
-0.00054062796433363
0.34116917428851
-0.00076068487015164
0.34214948060302
-0.00098030627855947
0.34334874462533