/*--------------------------------*- C++ -*----------------------------------*\
| =========                 |                                                 |
| \\      /  F ield         | OpenFOAM: The Open Source CFD Toolbox           |
|  \\    /   O peration     | Version:  2112                                  |
|   \\  /    A nd           | Website:  www.openfoam.com                      |
|    \\/     M anipulation  |                                                 |
\*---------------------------------------------------------------------------*/
FoamFile
{
    version     2.0;
    format      ascii;
    arch        "LSB;label=32;scalar=64";
    class       volVectorField;
    location    "1.7";
    object      U;
}
// * * * * * * * * * * * * * * * * * * * * * * * * * * * * * * * * * * * * * //

dimensions      [0 1 -1 0 0 0 0];

internalField   nonuniform List<vector> 
22000
(
(1.0000006572105 -2.1746179244064e-05 0)
(1.0000220815096 -6.325800897931e-05 0)
(1.0000612948087 -0.00010461888679624 0)
(1.0001188140224 -0.00014576005550159 0)
(1.0002021803165 -0.00018606456028661 0)
(1.0003049601107 -0.00022341136797476 0)
(1.0004318451733 -0.00026168936254432 0)
(1.0005783447752 -0.00030312864626681 0)
(1.0007280177976 -0.00034026680662358 0)
(1.0008793204066 -0.00036931617528232 0)
(1.0010523902396 -0.00039712090345805 0)
(1.0012704494676 -0.0004332445360982 0)
(1.0015177064257 -0.00048533003481882 0)
(1.0017610305472 -0.00055791855870342 0)
(1.0020197823676 -0.00065013697146126 0)
(1.0023487740221 -0.00075668515013128 0)
(1.0027600604194 -0.00086977342645709 0)
(1.0032249055816 -0.00098111057252098 0)
(1.0037271768955 -0.0010821434657361 0)
(1.004272769402 -0.0011659755793366 0)
(1.0048609713446 -0.0012288353888196 0)
(1.0054773915565 -0.0012717109502248 0)
(1.0061068758626 -0.0012951967132185 0)
(1.0067423456497 -0.0013058326852653 0)
(1.0073787444946 -0.0013040621523184 0)
(1.0080138016309 -0.0012976612151542 0)
(1.0086423650563 -0.0012810824265781 0)
(1.0092644297779 -0.0012700570584968 0)
(1.0098761754171 -0.0012434085421043 0)
(1.0104813219604 -0.0012346567298826 0)
(1.0000001368695 -6.43025493143e-05 0)
(1.0000214858263 -0.00018662504435556 0)
(1.0000599962015 -0.00030899804932694 0)
(1.0001172089662 -0.00042995143988737 0)
(1.0001981453319 -0.00054846795307294 0)
(1.000304442388 -0.00066233407268627 0)
(1.0004387579651 -0.00077347176842778 0)
(1.0005910659402 -0.00088570133775821 0)
(1.0007375772676 -0.00099414791334007 0)
(1.0008754163972 -0.001092376985399 0)
(1.001046062814 -0.0011827616952716 0)
(1.0012801355865 -0.0012809988235949 0)
(1.0015393737078 -0.0014165448708418 0)
(1.0017780502586 -0.0016181724288619 0)
(1.0020300362596 -0.0018931762852255 0)
(1.002361263318 -0.0022239526665735 0)
(1.0027817015044 -0.0025783197851952 0)
(1.0032580624264 -0.0029228041746038 0)
(1.0037734757479 -0.0032280635666604 0)
(1.0043340666421 -0.0034758488859486 0)
(1.0049371259382 -0.0036574540616685 0)
(1.0055676395065 -0.0037782754793183 0)
(1.0062095457443 -0.0038431556049835 0)
(1.006856909293 -0.0038706093752841 0)
(1.0075032984423 -0.0038619446542658 0)
(1.0081494264257 -0.0038415479202644 0)
(1.0087856534114 -0.0037924891516717 0)
(1.0094200780589 -0.0037577784049503 0)
(1.0100376130074 -0.0036796751525221 0)
(1.0106575851875 -0.0036536959824557 0)
(1.0000002766094 -0.00010562399726311 0)
(1.0000222523499 -0.00030701339270047 0)
(1.0000625365814 -0.00050674577320351 0)
(1.0001215219195 -0.00070339859213467 0)
(1.0002049436138 -0.00089730327010982 0)
(1.0003170632596 -0.0010854275597302 0)
(1.0004594689981 -0.0012669800450434 0)
(1.0006207305901 -0.0014480563302988 0)
(1.0007694271692 -0.001627041772645 0)
(1.0009015666725 -0.0017921671931677 0)
(1.0010756573416 -0.0019399742523532 0)
(1.0013276241952 -0.0020953194935513 0)
(1.0016015691917 -0.0023107384469113 0)
(1.0018431219254 -0.0026372453524611 0)
(1.0020971527453 -0.0030900535112536 0)
(1.0024381425099 -0.0036410129617717 0)
(1.0028730696923 -0.0042339765594163 0)
(1.0033651129078 -0.004808950998289 0)
(1.0038972972298 -0.0053140711900761 0)
(1.0044770203761 -0.0057198430932982 0)
(1.0050997141564 -0.0060132401376513 0)
(1.005750209102 -0.0062047996087393 0)
(1.0064102544929 -0.0063052316382305 0)
(1.0070762212353 -0.0063452772628039 0)
(1.007738161488 -0.006326904088311 0)
(1.0084024266508 -0.0062919417075381 0)
(1.0090512263643 -0.0062110712149307 0)
(1.0097054174873 -0.0061542781299025 0)
(1.0103309568912 -0.0060262695093692 0)
(1.0109755339759 -0.0059861651878562 0)
(1.0000004055788 -0.00014680426871169 0)
(1.0000235164933 -0.00042646344579929 0)
(1.0000655735879 -0.00070145768516842 0)
(1.0001274926311 -0.00097296411474263 0)
(1.0002147113302 -0.0012418270347329 0)
(1.0003323878779 -0.0015022992318249 0)
(1.0004836459343 -0.0017528391453788 0)
(1.0006561698044 -0.0020026817919984 0)
(1.0008104019856 -0.002250767190874 0)
(1.0009413222929 -0.0024796553015488 0)
(1.0011221355425 -0.0026828567718078 0)
(1.0013939116579 -0.0028951934992187 0)
(1.0016863928112 -0.0031902127361897 0)
(1.0019372281025 -0.003639173954218 0)
(1.002199580209 -0.0042654051179847 0)
(1.0025553481012 -0.0050318498949702 0)
(1.0030091646633 -0.0058598579105117 0)
(1.0035212917049 -0.0066624456326951 0)
(1.0040744171353 -0.0073644208456813 0)
(1.004677491092 -0.0079239217534246 0)
(1.0053240108519 -0.0083234771269553 0)
(1.0059991940865 -0.0085800754735199 0)
(1.0066820187822 -0.008710133728008 0)
(1.0073720360906 -0.0087580858969031 0)
(1.0080543703537 -0.0087269539271937 0)
(1.0087435612857 -0.0086759515890677 0)
(1.0094099044351 -0.0085621809751418 0)
(1.0100928139888 -0.0084849622280543 0)
(1.0107316577649 -0.0083077370040113 0)
(1.0114148865497 -0.008256305989158 0)
(1.0000005221487 -0.00018811192198772 0)
(1.0000250678541 -0.00054594836534048 0)
(1.000069241679 -0.00089536229373811 0)
(1.0001351689532 -0.0012410583514756 0)
(1.0002275386654 -0.001584278950877 0)
(1.0003516610373 -0.0019165749204549 0)
(1.0005132322518 -0.002236597662678 0)
(1.0006983244928 -0.0025556649877084 0)
(1.0008586740967 -0.0028719017263034 0)
(1.0009895091712 -0.0031631632163272 0)
(1.0011776840531 -0.0034208421742739 0)
(1.0014676761072 -0.0036886903268287 0)
(1.0017765967007 -0.00405986607077 0)
(1.0020365404845 -0.0046255054952698 0)
(1.0023089063137 -0.0054177720014989 0)
(1.0026828699071 -0.0063921425228215 0)
(1.0031621412796 -0.0074487280097388 0)
(1.0037050468126 -0.0084739847731836 0)
(1.0042925280627 -0.0093688647119592 0)
(1.0049325013824 -0.010078627109252 0)
(1.0056142073556 -0.010581199030646 0)
(1.0063226645296 -0.010900560196059 0)
(1.0070333571552 -0.011058899020988 0)
(1.0077506975806 -0.011115204069025 0)
(1.0084543817091 -0.011072644033898 0)
(1.0091700771329 -0.011008902819474 0)
(1.0098543159526 -0.010865373621852 0)
(1.0105699962151 -0.010773112723285 0)
(1.0112232325764 -0.010550268183322 0)
(1.0119533813698 -0.010494603223248 0)
(1.0000005569585 -0.00022966887770072 0)
(1.0000267983803 -0.00066582878391061 0)
(1.0000735033207 -0.0010893451289082 0)
(1.0001430594409 -0.0015087328419851 0)
(1.0002409354195 -0.0019252225685763 0)
(1.0003709338301 -0.0023287463937586 0)
(1.0005419175825 -0.0027186917421965 0)
(1.000740876461 -0.0031069404501623 0)
(1.0009102010316 -0.0034905718547132 0)
(1.0010451428287 -0.0038444045245553 0)
(1.0012462010713 -0.0041579518916264 0)
(1.0015596452222 -0.0044819406029805 0)
(1.0018902584249 -0.0049284170733802 0)
(1.002166653306 -0.0056115922654978 0)
(1.0024575696554 -0.0065771624089641 0)
(1.0028553806541 -0.0077741504323962 0)
(1.0033595751782 -0.0090764774275459 0)
(1.0039265512959 -0.010336178951192 0)
(1.0045377041423 -0.011424009412735 0)
(1.0052029344686 -0.012270941958716 0)
(1.0059096784109 -0.012853352962655 0)
(1.0066451183845 -0.013208553361069 0)
(1.007381813549 -0.013370174527374 0)
(1.0081295619837 -0.013416693243321 0)
(1.0088604718201 -0.013352077946948 0)
(1.0096115289454 -0.013273686466972 0)
(1.0103222058339 -0.013103214010914 0)
(1.0110811862426 -0.013005196083268 0)
(1.0117566411472 -0.012744845825347 0)
(1.0125444483354 -0.012699448436099 0)
(1.0000005915426 -0.00027149982084713 0)
(1.0000286557126 -0.00078608129648094 0)
(1.000078129723 -0.0012833446397383 0)
(1.0001517981612 -0.0017754943281933 0)
(1.0002559683573 -0.0022645523300916 0)
(1.0003924629668 -0.0027388356963448 0)
(1.0005728809974 -0.0031983608572669 0)
(1.0007847803 -0.0036565361446603 0)
(1.0009622022308 -0.0041087356680717 0)
(1.0011002850219 -0.0045248089489416 0)
(1.0013100344825 -0.0048930914027387 0)
(1.0016397073531 -0.0052741519289759 0)
(1.0019865383644 -0.0057988742641516 0)
(1.0022769118047 -0.0065989087683862 0)
(1.0025826648103 -0.0077259475372788 0)
(1.0029954867463 -0.0091199830487758 0)
(1.0035097697762 -0.010634393388425 0)
(1.0040813638188 -0.012098073756985 0)
(1.0046951455132 -0.013361993045123 0)
(1.0053672662808 -0.014347805790496 0)
(1.0060866160146 -0.015027929201303 0)
(1.0068444294928 -0.015446583641715 0)
(1.0076098313069 -0.015640641921016 0)
(1.0083974728143 -0.01570319749509 0)
(1.0091690489658 -0.01563495062008 0)
(1.0099725506604 -0.015554731237579 0)
(1.0107263954273 -0.015362923480332 0)
(1.011547751305 -0.015264081559763 0)
(1.0122603770624 -0.014964890060901 0)
(1.0131257853301 -0.014934880358423 0)
(1.0000006188312 -0.00031355961388231 0)
(1.0000305500994 -0.00090636985921498 0)
(1.0000826964877 -0.0014764673588601 0)
(1.0001599308069 -0.0020409675907735 0)
(1.0002696140958 -0.0026016167817686 0)
(1.0004112651088 -0.0031455170978249 0)
(1.0005993539073 -0.0036751446480331 0)
(1.0008231785386 -0.0042043539073468 0)
(1.0010096977257 -0.0047242021031153 0)
(1.0011545166985 -0.0052004029598883 0)
(1.0013781710213 -0.0056237216161068 0)
(1.0017287271715 -0.006065300343276 0)
(1.0020948781473 -0.0066701107318544 0)
(1.0024019916223 -0.0075805306082063 0)
(1.0027267843161 -0.0088515573759938 0)
(1.003162247903 -0.010418185653468 0)
(1.003699910378 -0.012121357986909 0)
(1.0042957955025 -0.013774248974017 0)
(1.0049354763987 -0.015211187902137 0)
(1.0056364247093 -0.016343586669002 0)
(1.0063842205669 -0.017135838491368 0)
(1.0071717989162 -0.017635215820491 0)
(1.007964235283 -0.017878070894603 0)
(1.0087832541921 -0.017971373006358 0)
(1.0095820055178 -0.017910859535358 0)
(1.0104235754254 -0.017838952549739 0)
(1.0112056585173 -0.01763255471658 0)
(1.0120783978783 -0.017540809690743 0)
(1.0128173467584 -0.017206750610822 0)
(1.0137570377483 -0.01720009653289 0)
(1.0000006487092 -0.00035565041600471 0)
(1.0000323123535 -0.0010257599758355 0)
(1.0000867842352 -0.0016677157937499 0)
(1.0001672644673 -0.0023030727873686 0)
(1.000282212166 -0.0029336482978653 0)
(1.00042882775 -0.0035461954003719 0)
(1.0006243453934 -0.0041448379272686 0)
(1.0008594700597 -0.0047435754639115 0)
(1.001054305163 -0.0053305328596567 0)
(1.0012046106693 -0.005867981228456 0)
(1.0014387361798 -0.006348041993109 0)
(1.0018043962022 -0.0068510013131793 0)
(1.0021844340396 -0.0075361062242618 0)
(1.0025054799465 -0.0085590888417327 0)
(1.002849644537 -0.009981423418707 0)
(1.0033112818498 -0.011733053594777 0)
(1.0038777322573 -0.013637692192739 0)
(1.0045013719632 -0.015486207688981 0)
(1.0051646218687 -0.01709158031478 0)
(1.0058857890551 -0.018355126861728 0)
(1.0066496355768 -0.019236954439905 0)
(1.0074543239709 -0.019793852920989 0)
(1.0082634495116 -0.020066440850716 0)
(1.0091076964553 -0.020179876947027 0)
(1.009931667891 -0.020124232503421 0)
(1.0108135965787 -0.020066489303609 0)
(1.0116286323043 -0.019854681249679 0)
(1.0125598135732 -0.019785348802832 0)
(1.0133326376275 -0.019428558613875 0)
(1.014355112566 -0.019464285648473 0)
(1.0000006723486 -0.00039747798996097 0)
(1.0000339420614 -0.0011431874373313 0)
(1.0000903556515 -0.0018555302136117 0)
(1.0001737659196 -0.0025595798474847 0)
(1.0002927928749 -0.0032581949110479 0)
(1.0004427728811 -0.0039380216232785 0)
(1.0006437066002 -0.0046041463781612 0)
(1.0008870322158 -0.0052721353182554 0)
(1.0010883233079 -0.0059275615876096 0)
(1.0012445656995 -0.0065262986376747 0)
(1.0014885116142 -0.0070598968363654 0)
(1.001866118846 -0.0076206599148028 0)
(1.0022574369492 -0.0083868569039527 0)
(1.0025916702971 -0.0095274277140489 0)
(1.0029533765988 -0.011102528550456 0)
(1.0034350182336 -0.01302727633349 0)
(1.0040187926777 -0.015104918410146 0)
(1.0046542529819 -0.01711076927963 0)
(1.0053228528648 -0.01884903657086 0)
(1.0060470049531 -0.020223043110792 0)
(1.0068139052858 -0.021193953038373 0)
(1.0076288051517 -0.021826877882551 0)
(1.008453879203 -0.022159187669572 0)
(1.0093278214269 -0.022327123934039 0)
(1.0101846162853 -0.022307180449867 0)
(1.011116590704 -0.022289897520196 0)
(1.0119739518324 -0.022090310390018 0)
(1.0129738660594 -0.022058480991053 0)
(1.0137879804731 -0.021685366966057 0)
(1.0149044641554 -0.021775295704168 0)
(1.0000006834366 -0.00043861452469737 0)
(1.0000352941762 -0.0012578379581481 0)
(1.0000930569291 -0.0020382881156196 0)
(1.0001786363726 -0.00280842951684 0)
(1.000300377099 -0.003572622594337 0)
(1.0004520646533 -0.0043176332505129 0)
(1.0006563372197 -0.0050493764072231 0)
(1.0009056047657 -0.0057847698096554 0)
(1.0011121191299 -0.0065067355136954 0)
(1.0012732316786 -0.0071652498235578 0)
(1.0015247974657 -0.0077519023066531 0)
(1.0019122454287 -0.0083708283567795 0)
(1.0023138079161 -0.0092181310090087 0)
(1.002659465047 -0.010473892892628 0)
(1.0030338947335 -0.012194996384688 0)
(1.0035281610959 -0.014281861816056 0)
(1.0041234177723 -0.016520025635706 0)
(1.0047712930019 -0.018673185021976 0)
(1.0054543416814 -0.020539409167736 0)
(1.0061967511566 -0.02202511733223 0)
(1.0069835870282 -0.023091249082352 0)
(1.0078224606067 -0.023809741537123 0)
(1.0086711606792 -0.024211938633751 0)
(1.0095752624537 -0.02444464223582 0)
(1.0104590944827 -0.024468884319798 0)
(1.0114310722388 -0.024500814207062 0)
(1.0123187870992 -0.02432039677337 0)
(1.0133757988414 -0.024335210369021 0)
(1.014220707609 -0.023953062554943 0)
(1.0154245297775 -0.024108186950763 0)
(1.0000007059418 -0.00047864100598664 0)
(1.000036254122 -0.0013685548490845 0)
(1.0000947237811 -0.0022141317200056 0)
(1.0001815535828 -0.003047181161201 0)
(1.0003046887524 -0.0038734436399384 0)
(1.0004564811867 -0.0046805855914176 0)
(1.0006619699589 -0.0054757725270519 0)
(1.0009147438781 -0.0062762814436742 0)
(1.0011244235651 -0.0070622689930646 0)
(1.0012884112315 -0.0077794978939082 0)
(1.0015446096262 -0.0084204567591065 0)
(1.0019376812023 -0.009099137439856 0)
(1.0023449854391 -0.010025867161354 0)
(1.0026981588797 -0.011390032177619 0)
(1.0030816708795 -0.013247456023028 0)
(1.0035845055717 -0.015488578172182 0)
(1.0041875169201 -0.01788433873604 0)
(1.0048456633502 -0.020186286528657 0)
(1.0055427869731 -0.022182802622263 0)
(1.0063033050218 -0.023780179374349 0)
(1.0071090075876 -0.024937473115762 0)
(1.0079690196885 -0.025735057275543 0)
(1.0088370334422 -0.026200400869236 0)
(1.0097654133863 -0.026494510357352 0)
(1.0106700277423 -0.026563451135994 0)
(1.0116753583731 -0.026651186558044 0)
(1.0125882890725 -0.026499449416152 0)
(1.0136975120486 -0.026575722448621 0)
(1.0145716656446 -0.026198507253276 0)
(1.0158602640347 -0.026437649004463 0)
(1.0000007432339 -0.00051710508506056 0)
(1.0000367869669 -0.0014742325939107 0)
(1.0000953387072 -0.0023813752822186 0)
(1.0001824296412 -0.0032733525901311 0)
(1.0003053752567 -0.0041576920694302 0)
(1.0004552611767 -0.0050236943621346 0)
(1.0006590428539 -0.0058795939433993 0)
(1.0009114420823 -0.0067424036486643 0)
(1.0011208868375 -0.0075897310863608 0)
(1.0012853864792 -0.0083640324578739 0)
(1.0015433382259 -0.009059048622738 0)
(1.0019377958471 -0.0097975025452283 0)
(1.002346728485 -0.010801738779774 0)
(1.0027047753185 -0.012268939956065 0)
(1.00309560117 -0.014254384181719 0)
(1.0036045810541 -0.016640595930988 0)
(1.0042114349244 -0.019185829712753 0)
(1.0048737466426 -0.021630606280184 0)
(1.0055765064148 -0.023753542153584 0)
(1.006344438533 -0.025460418100553 0)
(1.0071577502183 -0.026707862852818 0)
(1.0080281688357 -0.027584886617517 0)
(1.0089069756612 -0.028115196091936 0)
(1.0098528027358 -0.028475058662335 0)
(1.01077400272 -0.028594930032362 0)
(1.0118092947384 -0.028747838370298 0)
(1.0127462743223 -0.028635208779039 0)
(1.0139062378903 -0.028786734622436 0)
(1.0148109405173 -0.028426945442651 0)
(1.0161842302391 -0.028768055871716 0)
(1.0000007771274 -0.00055363954354584 0)
(1.0000368838582 -0.0015738882022864 0)
(1.0000947293123 -0.0025384113475867 0)
(1.0001808168511 -0.0034848506334364 0)
(1.0003018101942 -0.0044229480907441 0)
(1.0004476001932 -0.0053440060762015 0)
(1.0006466811075 -0.0062569862562529 0)
(1.0008951720421 -0.0071782287762134 0)
(1.0011016312627 -0.0080831337151823 0)
(1.0012647012317 -0.0089118276267981 0)
(1.0015214901854 -0.0096598558339002 0)
(1.0019126847984 -0.010457836041562 0)
(1.0023181536812 -0.011538212600641 0)
(1.0026764267295 -0.013104318815591 0)
(1.0030698079105 -0.015210599555098 0)
(1.0035791417242 -0.017732845096771 0)
(1.004183137398 -0.02041827726543 0)
(1.004841988356 -0.022997764701551 0)
(1.0055421740167 -0.025240815289146 0)
(1.0063081615129 -0.027052817428239 0)
(1.0071198594864 -0.028388284942076 0)
(1.0079909787703 -0.029344703263568 0)
(1.00887279366 -0.029942580581908 0)
(1.0098278777646 -0.030372995406017 0)
(1.0107606438801 -0.030551447751673 0)
(1.0118193802591 -0.030778708553693 0)
(1.012778047975 -0.030716877952976 0)
(1.0139834677237 -0.030956801028882 0)
(1.0149183010506 -0.030627607491125 0)
(1.0163737024824 -0.031088135176752 0)
(1.0000008001142 -0.00058794973886685 0)
(1.0000365173844 -0.0016666060940409 0)
(1.0000927812938 -0.0026837251529318 0)
(1.0001765557696 -0.0036797482363117 0)
(1.0002939186039 -0.0046667540947512 0)
(1.0004335406763 -0.0056382505300346 0)
(1.0006250845743 -0.0066039344512498 0)
(1.000866235424 -0.0075793901508155 0)
(1.0010666115136 -0.0085380224554964 0)
(1.001225326523 -0.0094182600036385 0)
(1.0014767513181 -0.010217822788026 0)
(1.0018588663267 -0.011074429145271 0)
(1.002254988103 -0.012228846368277 0)
(1.002608506476 -0.013889013480522 0)
(1.0029996607346 -0.016108238012721 0)
(1.0035033978033 -0.018756516462032 0)
(1.0040974137114 -0.021571468653009 0)
(1.0047444886716 -0.024275721752881 0)
(1.0054333745252 -0.026630824863802 0)
(1.0061873725681 -0.028542425471888 0)
(1.0069881119366 -0.029963807393207 0)
(1.0078492082167 -0.031000180256986 0)
(1.0087266881278 -0.03167024552946 0)
(1.009680352872 -0.032176755229183 0)
(1.0106217304402 -0.032424336445861 0)
(1.0116913661705 -0.032733925141861 0)
(1.0126763232822 -0.032738929547295 0)
(1.0139082094612 -0.033074284912036 0)
(1.0148897041481 -0.032798249959366 0)
(1.0164124057813 -0.033391122735952 0)
(1.0000008179391 -0.00061975889178646 0)
(1.0000356699112 -0.0017516161435888 0)
(1.0000895385901 -0.0028161158652522 0)
(1.0001697730093 -0.003856544647138 0)
(1.0002817760735 -0.0048872677688805 0)
(1.0004130460384 -0.0059040693294404 0)
(1.0005940467684 -0.0069176136980717 0)
(1.0008241368518 -0.007942835825148 0)
(1.0010150836527 -0.0089511234807587 0)
(1.0011665762366 -0.0098794899168467 0)
(1.00140891405 -0.010728138438086 0)
(1.0017767587147 -0.011641230133322 0)
(1.0021577765781 -0.01286619799674 0)
(1.0025006795426 -0.014614290723055 0)
(1.0028832464784 -0.016937662494362 0)
(1.0033738367168 -0.019701498333298 0)
(1.0039495627884 -0.022634978116112 0)
(1.0045757560169 -0.025453785061343 0)
(1.0052440352812 -0.027912745205371 0)
(1.0059762018205 -0.02991866398518 0)
(1.0067566763933 -0.031424334715023 0)
(1.0075984905994 -0.032542137791324 0)
(1.0084635862385 -0.033289287804767 0)
(1.0094072998578 -0.033878418247904 0)
(1.0103506318085 -0.034204824653435 0)
(1.0114225321722 -0.034605551439774 0)
(1.0124295064091 -0.034691657819441 0)
(1.0136767274559 -0.035130831446602 0)
(1.0147099233271 -0.034931182245261 0)
(1.0162835238482 -0.035664064096197 0)
(1.0000008348149 -0.00064883788653143 0)
(1.0000343205554 -0.0018283259411231 0)
(1.0000849699435 -0.0029346873835848 0)
(1.0001604572492 -0.0040141447479068 0)
(1.0002654839147 -0.0050832023436413 0)
(1.0003864880387 -0.0061399281836402 0)
(1.0005541487776 -0.0071961952319876 0)
(1.0007694646199 -0.008266411251257 0)
(1.0009476256336 -0.0093199290399907 0)
(1.0010890889302 -0.010292510725851 0)
(1.0013186838682 -0.011187011570069 0)
(1.0016672138655 -0.012153497042577 0)
(1.0020275381442 -0.013444554735545 0)
(1.0023536691084 -0.015273441583048 0)
(1.002720349971 -0.017690948765961 0)
(1.0031890390935 -0.020558549100395 0)
(1.0037374010348 -0.023598531663352 0)
(1.0043335342115 -0.026521353454297 0)
(1.0049723746781 -0.029076572852078 0)
(1.0056738122742 -0.03117255148975 0)
(1.0064252222697 -0.032762021775373 0)
(1.0072390564285 -0.033963373002321 0)
(1.0080829089014 -0.034792575377043 0)
(1.0090080844157 -0.035470493680391 0)
(1.0099441118385 -0.035884645119134 0)
(1.0110103425854 -0.036384814163067 0)
(1.0120297176993 -0.036565233497271 0)
(1.0132859155011 -0.037117570380746 0)
(1.0143611189749 -0.037012718011769 0)
(1.0159799001994 -0.037894950985638 0)
(1.0000008454154 -0.00067503589559065 0)
(1.0000325187351 -0.0018963449603138 0)
(1.0000791580977 -0.0030388336136342 0)
(1.0001486080244 -0.004151803297194 0)
(1.0002449100503 -0.0052535262498123 0)
(1.0003537927528 -0.0063442866300638 0)
(1.0005057041896 -0.0074377216505121 0)
(1.000703064881 -0.0085481081253918 0)
(1.0008655862123 -0.0096427428976063 0)
(1.000994587096 -0.010656030809295 0)
(1.0012078264659 -0.01159318144027 0)
(1.00153180744 -0.01260939073018 0)
(1.0018657875113 -0.013961090618564 0)
(1.0021691023136 -0.015862792484764 0)
(1.0025124944224 -0.018363887283169 0)
(1.002949792546 -0.02132319667522 0)
(1.0034603783055 -0.02445740301161 0)
(1.0040156093938 -0.027473096976818 0)
(1.0046146866359 -0.030116085498619 0)
(1.0052754600364 -0.032296216959396 0)
(1.0059882190116 -0.03396705529561 0)
(1.0067648649513 -0.035251743012171 0)
(1.0075779588941 -0.036165765305413 0)
(1.0084758036889 -0.036936578797344 0)
(1.0093944089894 -0.037445903194061 0)
(1.0104473246822 -0.038052841583146 0)
(1.0114684686287 -0.038339387420228 0)
(1.0127282618401 -0.039014447419087 0)
(1.0138338561229 -0.03902153936475 0)
(1.0154928727646 -0.040061568615548 0)
(1.0000008477828 -0.00069826890948902 0)
(1.0000302965515 -0.0019555025457204 0)
(1.0000722756638 -0.0031283129066717 0)
(1.0001346276566 -0.0042692848088254 0)
(1.0002206454771 -0.0053981542261393 0)
(1.0003156326802 -0.0065170316986465 0)
(1.0004493081585 -0.0076414448539277 0)
(1.0006251321305 -0.008786090272933 0)
(1.00076857727 -0.0099167651807854 0)
(1.0008825534904 -0.010966724813424 0)
(1.0010764287099 -0.011943027693119 0)
(1.0013713259788 -0.013004844767793 0)
(1.0016731947294 -0.014411042098798 0)
(1.0019467865948 -0.016377158074415 0)
(1.0022586294912 -0.018951698886233 0)
(1.0026549938993 -0.021992385684119 0)
(1.0031178241597 -0.025211310635964 0)
(1.0036218595741 -0.028311977597515 0)
(1.0041711353428 -0.031037384785803 0)
(1.0047813490525 -0.033298037553332 0)
(1.005446174866 -0.035049023316159 0)
(1.0061764148688 -0.036416786861945 0)
(1.0069496359372 -0.037417005702431 0)
(1.0078109513794 -0.038282751389873 0)
(1.0087026082171 -0.038890951272001 0)
(1.0097324852658 -0.039610331612061 0)
(1.0107465165674 -0.040008495439392 0)
(1.0120001959561 -0.04081586420382 0)
(1.0131273297 -0.040944147326618 0)
(1.0148197578793 -0.042155025793229 0)
(1.0000008453602 -0.00071849731499647 0)
(1.000027643513 -0.0020057770253498 0)
(1.0000643345671 -0.0032031203173221 0)
(1.0001185640982 -0.0043665914114009 0)
(1.0001929917506 -0.0055174696952357 0)
(1.0002731144133 -0.0066592533550385 0)
(1.0003871314765 -0.0078087782659749 0)
(1.0005384855002 -0.0089815558107113 0)
(1.0006593484923 -0.010142972486802 0)
(1.0007551185609 -0.011225125606978 0)
(1.0009259960472 -0.012235290195987 0)
(1.0011869920767 -0.013334907170757 0)
(1.0014503486806 -0.014784753006662 0)
(1.0016853626896 -0.016802480122814 0)
(1.0019536730553 -0.019437353656494 0)
(1.0022960264804 -0.022547906959472 0)
(1.0026984910343 -0.025842911914493 0)
(1.0031415663308 -0.029023118618562 0)
(1.0036326561206 -0.031829518858998 0)
(1.0041866447902 -0.034171534858413 0)
(1.0047979023839 -0.036006900606025 0)
(1.005477857487 -0.037461958005083 0)
(1.0062050474329 -0.038555654076765 0)
(1.0070249501536 -0.039521980969806 0)
(1.0078818688294 -0.040237421032786 0)
(1.0088806931362 -0.041078525902382 0)
(1.0098805492499 -0.041596368485912 0)
(1.0111172188308 -0.042549912466159 0)
(1.0122602160425 -0.042806973003118 0)
(1.0139665062691 -0.044205358324918 0)
(1.000000821379 -0.00073571313725577 0)
(1.0000246361087 -0.0020473579555011 0)
(1.0000554692168 -0.0032635085769341 0)
(1.0001004331629 -0.0044438675920407 0)
(1.0001618432338 -0.0056118442876983 0)
(1.000226115997 -0.0067715599175744 0)
(1.0003193209123 -0.0079401617861081 0)
(1.0004440916037 -0.0091351185045138 0)
(1.0005404250916 -0.010323501511661 0)
(1.0006172088457 -0.01143596021343 0)
(1.0007641706674 -0.012476731003868 0)
(1.0009881104221 -0.013605975698636 0)
(1.0012059507422 -0.015085652350457 0)
(1.0013908317043 -0.017137417206654 0)
(1.0015996385223 -0.019815304904747 0)
(1.0018717171724 -0.022980811558188 0)
(1.0021991437635 -0.02634153709416 0)
(1.0025727177142 -0.029593489220942 0)
(1.0029990121831 -0.032476424641014 0)
(1.0034960066063 -0.034895073186783 0)
(1.0040508144978 -0.036812736047724 0)
(1.0046818978142 -0.038350500329741 0)
(1.0053587710881 -0.039538456263038 0)
(1.0061370510876 -0.040602817558659 0)
(1.0069514645877 -0.041429855722157 0)
(1.0079181493741 -0.042395468187872 0)
(1.0088905547378 -0.043042173430461 0)
(1.0101128603541 -0.044146452198012 0)
(1.0112526392958 -0.044549862141476 0)
(1.0129728121305 -0.046132416710533 0)
(1.0000007742665 -0.00074999395708892 0)
(1.0000212696453 -0.0020805557791404 0)
(1.0000458730686 -0.0033098784424516 0)
(1.0000806725781 -0.0045016755216749 0)
(1.0001279573866 -0.0056823043983927 0)
(1.0001757096394 -0.006855116968166 0)
(1.0002467706181 -0.0080360742672115 0)
(1.0003421599162 -0.0092464824131392 0)
(1.0004111033953 -0.010457984709984 0)
(1.000467347347 -0.011598973890551 0)
(1.0005897503998 -0.012666228181127 0)
(1.0007752935915 -0.013814799489348 0)
(1.0009430910341 -0.015308699850741 0)
(1.0010678316789 -0.017378063764878 0)
(1.0012027811022 -0.020087762853227 0)
(1.0013913001379 -0.023304194805058 0)
(1.0016371421513 -0.026734172590828 0)
(1.0019433598071 -0.030064223963674 0)
(1.0023137899088 -0.033029887344682 0)
(1.0027650359516 -0.035527955021887 0)
(1.0032748091713 -0.03752537887176 0)
(1.0038625460004 -0.039141220171245 0)
(1.0044932551982 -0.040413713402136 0)
(1.0052240271413 -0.041569408265822 0)
(1.0059923701905 -0.042497825859986 0)
(1.0069144132498 -0.043582910429852 0)
(1.007850802949 -0.044352225762328 0)
(1.0090423207629 -0.045603999507975 0)
(1.0101697595385 -0.046147208071555 0)
(1.0118995535957 -0.047927044323919 0)
(1.0000007191724 -0.0007614970030062 0)
(1.0000175673157 -0.0021060487713252 0)
(1.0000358037085 -0.0033430794046547 0)
(1.0000598729254 -0.0045410419052744 0)
(1.0000919767049 -0.0057301948807013 0)
(1.000122582172 -0.0069114446115129 0)
(1.0001707813055 -0.0080981563496201 0)
(1.0002355167248 -0.0093177656555901 0)
(1.0002763206655 -0.010549783036448 0)
(1.0003115773748 -0.011719187582955 0)
(1.0004068484646 -0.012808141466483 0)
(1.0005476875707 -0.013958948357973 0)
(1.0006560263601 -0.015438481905269 0)
(1.0007096165307 -0.017496035870224 0)
(1.0007616206165 -0.02022016308603 0)
(1.0008626189692 -0.023486955155658 0)
(1.0010322393671 -0.026999460330709 0)
(1.001283918028 -0.030426541607326 0)
(1.0016194359169 -0.033492427007927 0)
(1.002045235046 -0.036082697965564 0)
(1.0025303634741 -0.038165063676866 0)
(1.0030866737955 -0.039860683390332 0)
(1.0036789749304 -0.041216963712151 0)
(1.0043614698495 -0.04246293611874 0)
(1.0050783839564 -0.043499624810955 0)
(1.0059464059169 -0.044707318501512 0)
(1.0068368096493 -0.045614849697714 0)
(1.0079838422493 -0.047031728826712 0)
(1.0090907145207 -0.047722643265539 0)
(1.01080806009 -0.049726245683075 0)
(1.0000006188101 -0.00077051579267743 0)
(1.0000135967035 -0.0021251840039616 0)
(1.0000257848434 -0.0033655072624015 0)
(1.0000390128594 -0.0045648772070978 0)
(1.0000550240977 -0.005758610519529 0)
(1.0000675230885 -0.0069442525665287 0)
(1.0000919733775 -0.0081310703383662 0)
(1.0001250033712 -0.0093538665520064 0)
(1.0001360138498 -0.010602669662425 0)
(1.0001479712946 -0.011799941523286 0)
(1.0002152988255 -0.012910443686835 0)
(1.0003147112841 -0.014058635116139 0)
(1.0003695423398 -0.015511813791163 0)
(1.0003575671041 -0.01754152092855 0)
(1.0003295886013 -0.020267619337994 0)
(1.0003447751936 -0.023582779427949 0)
(1.0004400271552 -0.027184968963536 0)
(1.0006357790693 -0.030717392203799 0)
(1.000935586291 -0.033884097651237 0)
(1.0013334239849 -0.036554562413706 0)
(1.0017899026757 -0.038705605511467 0)
(1.0023038425744 -0.040459149087361 0)
(1.0028454471338 -0.041884465625032 0)
(1.0034560869051 -0.043200333775085 0)
(1.0041109235269 -0.044337267881119 0)
(1.0048809203125 -0.045657277946934 0)
(1.0057330790276 -0.046698112356381 0)
(1.0067604986346 -0.048299090276278 0)
(1.0079227705224 -0.049124255539048 0)
(1.0095299177315 -0.051540908226254 0)
(1.0000004201872 -0.00077834780512905 0)
(1.0000086388639 -0.0021417625067003 0)
(1.0000149515978 -0.0033844914358542 0)
(1.000018167286 -0.0045845556445705 0)
(1.0000176607829 -0.005782953809463 0)
(1.0000105800985 -0.0069743201889535 0)
(1.0000115495197 -0.0081632804293665 0)
(1.0000152391329 -0.0093910741440531 0)
(0.99999485747191 -0.010657050188642 0)
(0.99997240781562 -0.011879490211356 0)
(0.99999767902086 -0.013005545157162 0)
(1.0000536946369 -0.01414820696605 0)
(1.0000727017058 -0.01558757159128 0)
(1.0000263224835 -0.017630225243245 0)
(0.99995572410116 -0.020423154259431 0)
(0.99991333139425 -0.023853820870812 0)
(0.99993846285359 -0.027596074066833 0)
(1.0000547117197 -0.031261266186009 0)