/*--------------------------------*- C++ -*----------------------------------*\
| =========                 |                                                 |
| \\      /  F ield         | OpenFOAM: The Open Source CFD Toolbox           |
|  \\    /   O peration     | Version:  2112                                  |
|   \\  /    A nd           | Website:  www.openfoam.com                      |
|    \\/     M anipulation  |                                                 |
\*---------------------------------------------------------------------------*/
FoamFile
{
    version     2.0;
    format      ascii;
    arch        "LSB;label=32;scalar=64";
    class       volScalarField;
    location    "12.6";
    object      p;
}
// * * * * * * * * * * * * * * * * * * * * * * * * * * * * * * * * * * * * * //

dimensions      [0 2 -2 0 0 0 0];

internalField   nonuniform List<scalar> 
22000
(
0.032686969780902
0.032664917606624
0.032619476183408
0.032549456106912
0.03245432555556
0.032334103888331
0.032189057753129
0.032019473659824
0.03182556839577
0.031607502183648
0.031365424782107
0.031099512292818
0.030809975291855
0.030497060021817
0.030161037790407
0.029802211801178
0.029420903102597
0.029017471868056
0.028592288275016
0.028145780813353
0.027678368323124
0.02719056516651
0.026682826130452
0.026155782498041
0.025609889533083
0.025045958186003
0.024464354493968
0.023866202788609
0.023251566207801
0.022622134349356
0.033099016575197
0.03307581430889
0.033028960611027
0.03295738128784
0.032860512266661
0.032738297170857
0.032590945090323
0.032418711737444
0.032221797027262
0.032000348569252
0.031754502731514
0.031484421400786
0.03119029811108
0.03087236224633
0.030530865267946
0.03016609410468
0.029778348964263
0.029367978101907
0.028935329497193
0.028480828086768
0.028004864663682
0.027507964691114
0.026990538992261
0.026453258241965
0.025896493400072
0.025321152278148
0.024727415754602
0.024116607992803
0.023488352223341
0.022844635331943
0.033854139630287
0.033830187743033
0.033781906949509
0.033708292011293
0.033608816879364
0.033483419511301
0.033332280304208
0.033155622603862
0.032953616981834
0.032726385049187
0.032474036157013
0.032196704127545
0.031894550327834
0.031567773139742
0.031216588300783
0.030841252905838
0.030442028609628
0.030019239758736
0.029573191034676
0.029104296865271
0.028612893301062
0.028099523811288
0.027564516938923
0.027008620576882
0.026432053756344
0.025835930314701
0.025220103348216
0.024586355861029
0.023933519850358
0.023264327270479
0.034902486374019
0.034877769087423
0.034827944779551
0.034751989393967
0.034649370864699
0.034520019531238
0.03436409755359
0.03418180012172
0.033973262091704
0.033738566051293
0.033477778353761
0.033190988837752
0.032878309692536
0.032539891721963
0.032175895510147
0.03178653066313
0.031371997877997
0.030932581115038
0.030468516017693
0.029980195428004
0.029467869317954
0.028932099812065
0.028373088369944
0.027791686252291
0.027187882535928
0.026563074595164
0.025916620643023
0.025250931541189
0.024563649728901
0.023858522711195
0.036200489105941
0.036174954213774
0.03612347086547
0.036044982330495
0.035938934050525
0.035805236267992
0.035644024345631
0.035455456791565
0.035239620723532
0.03499654421888
0.034726232243847
0.034428711210261
0.034104022600513
0.033752248106742
0.033373468600218
0.032967823266231
0.032535423799004
0.032076491269977
0.031591159963746
0.031079782674602
0.030542483861222
0.029979836391172
0.029391860776605
0.028779527244113
0.028142507291756
0.027482550297903
0.026798352725902
0.026093130628026
0.025362982176756
0.024612998911933
0.037709457672734
0.037683123099436
0.037630013520745
0.037549038710736
0.037439615660838
0.037301623653502
0.037135157495948
0.036940323857375
0.036717145265298
0.036465576826429
0.036185541210684
0.035876978916469
0.035539835390322
0.035174097259673
0.034779736152244
0.034356792477942
0.033905254959951
0.033425252904554
0.03291677996621
0.03238012302728
0.031815233856614
0.031222679983651
0.030602239027556
0.029955007866943
0.029280247012241
0.028580119628291
0.027852491676668
0.027101552987058
0.026321500255428
0.025519059759449
0.039394385819402
0.039367356695029
0.039312827913842
0.039229676919086
0.03911728754929
0.038975497542648
0.038804346494973
0.038603872365258
0.038374014272021
0.038114633880666
0.037825548503913
0.037506587738214
0.037157572620844
0.036778365098961
0.036368793715797
0.035928766822446
0.035458110619352
0.03495682753028
0.034424724395942
0.033861988729525
0.033268344211202
0.032644327899829
0.031989403652949
0.031304791904553
0.030589238377199
0.0298453677292
0.029070035437042
0.028268550936995
0.027432840450581
0.026571509663521
0.041222991719998
0.041195456287789
0.041139883047973
0.041055119845232
0.040940513105128
0.040795848465202
0.040621095473472
0.04041620610104
0.040181016539611
0.039915273564245
0.039618664777082
0.039290882180871
0.038931591820398
0.038540498535098
0.038117250499926
0.037661586546437
0.03717312589594
0.036651703130624
0.036096885472544
0.03550871972499
0.034886637714617
0.034231110753527
0.033541207765671
0.032818256765426
0.032060374412946
0.031270677750857
0.030444821695801
0.02958935671051
0.028693563364292
0.027768120167456
0.043165128702941
0.04313735203581
0.043081263660049
0.042995686965701
0.042879927717013
0.042733709141024
0.04255691607387
0.042349397459896
0.042110867357401
0.041840936407078
0.041539138119813
0.041204999776954
0.04083800098382
0.040437655581603
0.040003392088691
0.039534739504899
0.039031062134584
0.038491981025204
0.03791676565675
0.037305273538852
0.03665657329027
0.035971024488409
0.03524721051192
0.034486536213246
0.033686364146018
0.032850315747868
0.031972649267633
0.031061249938713
0.030102377823773
0.029108909828765
0.045192492573202
0.045164807545108
0.045108870807405
0.04502348706284
0.044907918935055
0.044761818231387
0.044584971825177
0.044377110040832
0.044137807135112
0.043866517871781
0.043562598726987
0.04322538624412
0.042854143024681
0.042448158284944
0.042006601532902
0.041528750511622
0.041013665278908
0.0404607044698
0.039868778712533
0.039237501479173
0.038565502231796
0.037852972719829
0.037097913082848
0.036301757990776
0.035460981682954
0.034579695036763
0.03365055582018
0.032682837859075
0.031659416213802
0.030595420509773
0.04727853542285
0.047251330531661
0.047196328099733
0.04711231717219
0.0469985144788
0.046854493665047
0.046679933661456
0.046474433783572
0.046237413924707
0.045968156144446
0.04566581994434
0.045329527773043
0.044958297469144
0.044551162071142
0.044106995036516
0.043624782154889
0.043103231326392
0.042541388084418
0.041937743545167
0.041291606535133
0.040601091487804
0.039866154648786
0.039084117236683
0.038256377524814
0.03737839191156
0.036454710099088
0.035476190313188
0.034453474083277
0.033365683358253
0.032230153146188
0.049398532822786
0.04937223393038
0.049319029255928
0.049237697210102
0.049127406100124
0.048987646185368
0.048817981525364
0.048617871637062
0.048386571798271
0.048123179020817
0.047826640856365
0.04749584676997
0.047129547091371
0.046726490955196
0.046285223761761
0.045804401013676
0.045282335784042
0.044717708590273
0.044108536799807
0.043453754922686
0.042750897339733
0.041999593917895
0.041196412463525
0.04034260501977
0.039432527416308
0.038471043294785
0.037447119191087
0.036372568467075
0.03522255790913
0.034016205676281
0.051529709620298
0.051504766491066
0.051454265595659
0.051376988072324
0.051272056998082
0.051138876281283
0.050976890674794
0.050785415137053
0.050563534815117
0.050310154085153
0.050023999180648
0.049703713859548
0.049347765593137
0.048954597985247
0.048522404207199
0.048049475391165
0.047533696099748
0.046973330094316
0.046365878375984
0.045709823132694
0.045002070405886
0.04424180789872
0.043424805464293
0.042551995724718
0.041616631486395
0.040623599041487
0.039560143955394
0.038438754789575
0.037230802561237
0.035956529138787
0.053651367849754
0.05362823567646
0.053581356780158
0.053509531989575
0.053411846355579
0.053287618140223
0.053136171637107
0.052956676679218
0.052748048730205
0.052508999208598
0.05223803074869
0.051933535288699
0.051593689221071
0.051216617850166
0.050800146734556
0.050342178445261
0.049840142160249
0.049291845013642
0.048694229852537
0.048045265486331
0.047341171574406
0.046580598540943
0.045758454979346
0.044875192607118
0.043922921581398
0.042906280594632
0.041810812210055
0.040649260378651
0.039389913363019
0.038053162244503
0.055745025367668
0.055724150135913
0.055681793700188
0.055616796101332
0.055528215013392
0.055415287354862
0.055277219938617
0.055113041858895
0.054921504877297
0.054701133955443
0.054450213715256
0.054166888150433
0.05384904307415
0.053494482506881
0.053100657152007
0.052665070593269
0.052184677567755
0.051656805266692
0.051077799878671
0.050445077063845
0.049754103373649
0.049002935395813
0.04818551130664
0.04730173940332
0.046342403407699
0.045311865811119
0.044193642184018
0.043000809981631
0.041697891597835
0.040305516741981
0.057794522045262
0.057776326087136
0.05773934733439
0.057682485492067
0.057604783469713
0.057505404725413
0.057383445979222
0.057237805123312
0.057067082227644
0.056869629207661
0.056643525967407
0.056386681078744
0.056096700549114
0.055771075975032
0.055406887398717
0.055001240279941
0.054550609149192
0.054051831498589
0.053500633295291
0.05289384948855
0.052226142616197
0.05149492562595
0.050693077920791
0.049819894961447
0.048864693152321
0.047831482180894
0.046701500090789
0.045488061069693
0.044151380639238
0.042711926534511
0.059786074693457
0.059770944755136
0.059740128469913
0.059692607091864
0.059627423297128
0.05954367729503
0.059440366970906
0.059316273673575
0.059169863689649
0.058999335841119
0.058802586074598
0.058577308578434
0.058320850011382
0.058030409251411
0.05770271288819
0.057334483048136
0.056921721990612
0.056460782566609
0.055946763758726
0.055375909476372
0.054742044386785
0.054041904410422
0.053267233304128
0.052416654620285
0.051477880281813
0.050454501776295
0.04932525381373
0.048103607842066
0.046744925216418
0.045268984735183
0.061708273739833
0.061696550408645
0.061672590603958
0.061635479377471
0.061584275048204
0.061518027652615
0.061435650887109
0.061335827937047
0.0612169140066
0.061076980430887
0.060913766997584
0.060724782466291
0.060507144214697
0.060257788388717
0.059973117461032
0.059649497992734
0.059282484081206
0.058867964127818
0.058400420716123
0.057875515139312
0.057286221493048
0.056628589001707
0.055893168500301
0.05507787183522
0.054168665157407
0.053168651281015
0.052053813358295
0.050837792293464
0.049470558520074
0.047970899130905
0.063552021182274
0.063543993364621
0.063527479341225
0.063501689673067
0.063465714989442
0.063418570910618
0.063359106197898
0.06328592838925
0.063197307857216
0.063091217145252
0.062965272670273
0.062816832597704
0.062642824218932
0.06243995993378
0.062204360505035
0.061932075916951
0.061618253138384
0.061258350066152
0.060846264582249
0.060377097584872
0.059842984189844
0.059239298278388
0.058555374117972
0.057788414670283
0.056922527900531
0.055960278148519
0.0548745274171
0.053679040368672
0.052317759441
0.050808614260722
0.065310411609925
0.065306314985479
0.065297727759021
0.065284003755078
0.065264280879001
0.065237557700448
0.065202640613715
0.065158087777263
0.065102116138479
0.065032631904817
0.064947166031343
0.064842964352151
0.064716810559643
0.064565236160395
0.064384135056359
0.064169285538577
0.063915489996935
0.063617816491961
0.063269642591391
0.062865535344662
0.062396843069081
0.061858269237736
0.061237957826836
0.06053240377671
0.059723881524874
0.058814384219181
0.0577735811564
0.056614753814115
0.055275002814938
0.05377099489207
0.066978563813501
0.066978584800452
0.066978299861926
0.06697721768587
0.066974540666958
0.066969270346557
0.066960192088759
0.066945839097343
0.066924406682462
0.066893767708301
0.066851411800978
0.066794516704662
0.066719781446717
0.066623603230938
0.066501719154859
0.066349676359114
0.066162019441436
0.065933453741576
0.065656951016165
0.065326545012646
0.064932945206191
0.06447013067627
0.063925212056091
0.063293842974698
0.062556613671578
0.061714937666143
0.060735603267855
0.059631545103216
0.058331838685941
0.056848486587493
0.068553418145089
0.068557681213346
0.068565964910705
0.068577933294183
0.068592876763561
0.068609822381787
0.068627546861519
0.068644583565223
0.068659142296674
0.068669092032107
0.068671919759921
0.06866477117062
0.068644322834095
0.068606886822757
0.06854813878593
0.0684634375949
0.068347199060554
0.068193764000721
0.0679958817771
0.067746964077442
0.067437384694989
0.067060171722055
0.066601894949636
0.066056895711181
0.065404613889191
0.064645090200262
0.063742761131775
0.062711396124551
0.06147240239468
0.060033249828684
0.070033595510533
0.070042075637776
0.070058981426654
0.070084164843694
0.070117046037459
0.070156697756015
0.070201871024759
0.070251095031553
0.070302620927751
0.070354362705544
0.070403868872849
0.070448292127924
0.070484330480048
0.070508230070271
0.07051567895388
0.070501866072109
0.070461234595253
0.070387742585262
0.070274200720631
0.07011320155589
0.069895309786366
0.069611989240149
0.069250376635289
0.068802100183423
0.06824768542104
0.067582487355946
0.066771216584105
0.065822930264569
0.064657423575393
0.063286477503539
0.071419441939185
0.071431881133566
0.071457030636458
0.071495114924605
0.071545736136345
0.071608008419781
0.071680738543972
0.07176245358156
0.071851349788251
0.071945346442051
0.072042106784954
0.072138883638502
0.072232502088695
0.072319219170892
0.072394798593076
0.072454242033003
0.072492063900433
0.072501743738878
0.072476359692079
0.072407449316372
0.07228640876296
0.072102275051559
0.071844524014564
0.07149941076899
0.07105293895846
0.070488751017639
0.069783844123467
0.068919214606161
0.067829625624438
0.066494473893996
0.072713352975379
0.072729507889753
0.07276218973676
0.072812464748579
0.072880083288506
0.072963914938095
0.073063037275771
0.07317631793705
0.073301965433853
0.073437814569222
0.073581472422365
0.073730198769726
0.073880986128524
0.074030290005455
0.074174191359629
0.074307803365987
0.074425868300983
0.074521484693272
0.074587901456032
0.074615548022344
0.074596639552602
0.074517689888435
0.074370968265525
0.074135894040512
0.073808069894021
0.073354382042366
0.072779814230837
0.072018929269457
0.071064932626557
0.069688936814038
0.022017146558319
0.021439583557878
0.020850850455137
0.020252092098311
0.019644311979998
0.019028276043963
0.018404619873434
0.017773969935552
0.017136996081821
0.016494415527648
0.015846978835292
0.015195451588692
0.014540602502042
0.01388320147996
0.013224021334555
0.012563837334874
0.011903425188533
0.011243558541561
0.01058500674584
0.0099285328469106
0.0092748915486206
0.0086248296352005
0.0079790889382719
0.0073384144951947
0.0067035559988583
0.006075166922469
0.0054536679375764
0.0048396420490322
0.0042337379179272
0.0036365696408686
0.0030486826201742
0.0024705629533419
0.0019026505871056
0.001345348634077
0.00079902185591428
0.00026400112756146
-0.00025942476109077
-0.00077100026280294
-0.0012705189601743
-0.0017578004234368
-0.0022327239823198
-0.0026951773708397
-0.0031451321015751
-0.0035825298827718
-0.0040074504069867
-0.0044198614463488
-0.0048199954806193
-0.0052078041702295
-0.0055837971433232
-0.0059479293440177
0.022228609915452
0.021643029638231
0.021044834170587
0.020436378656191
0.019819130933562
0.0191937354144
0.018560536267446
0.017919950046389
0.017272555109746
0.01661905353658
0.015960210456347
0.015296805115398
0.014629611568311
0.013959405793074
0.013286977186815
0.012613129934578
0.01193867820886
0.01126444228283
0.01059124591054
0.0099199124541934
0.0092512597558204
0.0085860929759817
0.0079251935114549
0.007269299325885
0.006619088558103
0.0059752849106111
0.0053388282801008
0.0047104328227592
0.0040906957132833
0.0034801904556867
0.0028794842740374
0.0022891240244297
0.0017096186343515
0.0011414374411601
0.00058500245294066
4.0696534254816e-05
-0.00049115056291573
-0.0010102425298517
-0.0015163463665148
-0.0020092469970756
-0.002488814713624
-0.0029549025304489
-0.0034074977784651
-0.0038464909449813
-0.004272017497505
-0.0046839346366041
-0.0050825920843846
-0.0054676367978494
-0.0058397027525222
-0.0061976355706772
0.022625490494996
0.0220179089393
0.021394450846629
0.020760209161682
0.020117858512988
0.019467977103406
0.018810441224819
0.018145343204723
0.017473166364681
0.016794658004949
0.016110671542239
0.015422055396172
0.0147296202153
0.01403416552689
0.013336510260904
0.012637497384528
0.011937984746658
0.011238838882086
0.010540931477434
0.0098451340852115
0.0091523119516716
0.0084633208043377
0.0077790066408042
0.0071002110276141
0.0064277807068512
0.0057625490029504
0.0051052521986167
0.0044566210341411
0.0038173548504538
0.0031881159497104
0.0025695296660848
0.0019621867864878
0.0013666347896593
0.00078338043244893
0.00021287645243777
-0.00034446408186704
-0.00088829181483674
-0.0014182851493524
-0.0019342043410889
-0.0024358088855706
-0.0029229816936752
-0.003395539567154
-0.0038535173489344
-0.004296732893765
-0.0047254387582127
-0.0051393151332006
-0.0055389595305806
-0.005923509378037
-0.0062939275298845
-0.0066470916228274
0.023185799114463
0.02254325100227
0.021880299292969
0.021206376561398
0.020525953902016
0.019839422229773
0.019145891843897
0.018444947654291
0.01773693029795
0.01702265075719
0.016303078316752
0.015579140028052
0.014851672070744
0.014121477625119
0.013389387034913
0.012656267766086
0.011923009129891
0.01119051322952
0.010459691844946
0.0097314608703306
0.0090067338411847
0.0082864187945068
0.0075714159830474
0.006862612210947
0.0061608702257031
0.0054670238645321
0.004781899678024
0.0041062860390921
0.0034409347019136
0.0027865624619749
0.0021438455117023
0.0015134212023854
0.00089587788152088
0.00029176271582615
-0.00029843638223658
-0.00087426732194449
-0.0014353519266144
-0.0019813297033176
-0.0025119440795542
-0.0030269110367993
-0.0035261179076608
-0.004009319115044
-0.0044765966316319
-0.0049276519811994
-0.0053628746407868
-0.0057816736169538
-0.0061849468257217
-0.0065710447103229
-0.0069412544396687
-0.0072893690902979
0.023897087866441
0.023208307549184
0.022493197473013
0.021767180060776
0.021037099836713
0.020302998017679
0.019562892027091
0.018815673945247
0.018061507464386
0.017301300118821
0.0165361744962
0.0157671530012
0.014995094374785
0.014220795466304
0.013445091197395
0.012668871682751
0.011893057878447
0.01111858772084
0.010346413010845
0.0095774925352834
0.0088127833759083
0.0080532372023681
0.0072997983050251
0.0065533999758841
0.0058149590970145
0.0050853716014207
0.0043655094019541
0.0036562164189479
0.0029583015621341
0.0022725377084475
0.0015996542643204
0.00094034044638325
0.00029523279433997
-0.00033507215400027
-0.00095004237362102
-0.0015491775880868
-0.0021320627256761
-0.0026982882363507
-0.0032475729432364
-0.0037795761318666
-0.0042941828957564
-0.0047910655499538
-0.0052703487662309
-0.0057315812974339
-0.0061752951386323
-0.0066005459057697
-0.0070085759065346
-0.0073967235002588
-0.0077666646969573
-0.008108233981893
0.024751925267367
0.0240065403033
0.023227256999066
0.022437318985952
0.02164656962276
0.020854515661339
0.020057729007808
0.019254221931928
0.018443962162395
0.017628002618572
0.016807666810863
0.015984094749694
0.01515816799364
0.014330670009808
0.013502436965521
0.012674383100676
0.011847464067572
0.011022656220694
0.010200953187184
0.009383358153382
0.0085708736414201
0.0077644983768425
0.0069652270709112
0.0061740474586554
0.005391933700693
0.0046198377984123
0.0038586858942795
0.0031093782580002
0.0023727816768547
0.0016497275776603
0.00094100254534291
0.00024735327079263
-0.00043052846080591
-0.0010919898362608
-0.0017364477940749
-0.0023633463870111
-0.0029722264481477
-0.0035626210625908
-0.004134218007373
-0.004686610205482
-0.0052196765192137
-0.0057329971611653
-0.0062267401406701
-0.0067002898169325
-0.007154330981684
-0.0075875191798854
-0.0080014809488901
-0.0083923022263685
-0.0087620641927857
-0.0090956537721963
0.025746153288236
0.024934343493537
0.024079197061046
0.023213855850384
0.022351834313843
0.021491868898898
0.020628683677901
0.019759210108614
0.018883210531461
0.018001945097157
0.017116991811319
0.01622963059871
0.015340765052718
0.01445115778177
0.013561642998982
0.012673161722445
0.011786708826372
0.010903302963053
0.010023983153441
0.0091498006228944
0.0082818071115454
0.0074210523208365
0.0065685849485449
0.0057254495365425
0.0048926783666536
0.0040712822076375
0.0032622498878949
0.0024665446393803
0.0016850962595284
0.00091880008467845
0.00016850711093912
-0.00056497069418116
-0.0012808778259471
-0.0019784962248439
-0.0026571815627353
-0.0033163125227303
-0.0039553745510487
-0.0045738310851518
-0.0051713262524552
-0.0057473702450014
-0.0063018223779724
-0.0068341507013355
-0.0073445516065565
-0.007832235149442
-0.0082980224424765
-0.0087402000995647
-0.0091607889240854
-0.0095546224473439
-0.0099241980375073
-0.010248486548132
0.026878588096449
0.025990942789472
0.025048378972137
0.024096321409053
0.023152684706659
0.022215130994467
0.021276068593489
0.020331129680226
0.019379875845617
0.01842385269156
0.01746495348849
0.016504620791142
0.015543777844109
0.014583158705357
0.013623594087671
0.012666056490732
0.011711587045567
0.01076125341068
0.0098161456518247
0.0088773682205124
0.0079460271521588
0.0070232281400364
0.0061100790973741
0.0052076870153593
0.0043171489602808
0.003439542105739
0.0025759248795718
0.0017273309562438
0.00089476166494472
7.918515524497e-05
-0.00071847409205892
-0.0014973295320017
-0.0022565508690303
-0.0029953445813066
-0.003712992489079
-0.0044087963186025
-0.005082170528575
-0.0057324974087922
-0.0063593593199155
-0.0069621708588907
-0.0075407528051131
-0.0080944405375495
-0.0086234388313763
-0.0091267454864371
-0.0096052526825402
-0.010056864757089
-0.010483693736247
-0.010879495585442
-0.011246451309812
-0.011557498098936
0.028150341132151
0.027177747882975
0.026136186399798
0.025086117081939
0.024050652776653
0.023025999028114
0.022001704436427
0.02097186004646
0.019935845215892
0.018895591026199
0.017853377569863
0.016810832375812
0.015768893753642
0.014728259834172
0.013689758484099
0.012654401690784
0.011623286561683
0.010597538152406
0.0095783050700498
0.0085667520584682
0.0075640464293148
0.0065713571385051
0.0055898590384162
0.004620729720698
0.0036651396371244
0.0027242406712333
0.0017991693723574
0.00089103927707544
9.3295900246275e-07
-0.00087009906637849
-0.0017210478101157
-0.0025509411226413
-0.0033588617552327
-0.0041439284274472
-0.0049053336740081
-0.0056422902609323
-0.0063541221869514
-0.0070401193496162
-0.0076997747050152
-0.0083323990227064
-0.0089377367938678
-0.0095149786492484
-0.01006430969553
-0.010584453877738
-0.01107644823926
-0.011537566957657
-0.01197033192116
-0.012366746235772
-0.012728942041376
-0.013022528391183
0.029564118141173
0.02849770836076
0.027345472790763
0.026186061893232
0.02504863329111
0.023927456828163
0.022808608936987
0.021684392504869
0.020554045073596
0.01941999936356
0.018284998842167
0.017150877805519
0.016018582691675
0.014888767702786
0.013762260678641
0.012640124110958
0.011523524313606
0.010413655479326
0.0093117342022131
0.0082189942132567
0.0071366730897291
0.0060660123661945
0.0050082635137969
0.0039646845145271
0.002936529141147
0.0019250341064919
0.00093142458087745
-4.309581591017e-05
-0.00099735191733732
-0.0019301989486207
-0.0028405312010456
-0.0037272783958345
-0.0045894219066394
-0.005425978889858
-0.0062360370357917
-0.007018703880828
-0.0077731950028291
-0.0084986897854924
-0.0091945720877195
-0.0098600292667214
-0.010494703018372
-0.011097634624693
-0.011668923316614
-0.012207087922921
-0.012713134451614
-0.013183892359038
-0.013622071365055
-0.014017975582564
-0.014373754024356
-0.014646543632748
0.031123624346227
0.029954695823301
0.028679954650249
0.027399855739695
0.026150467014817
0.024923481091846
0.023700783939938
0.022472650031685
0.021238271779408
0.02000073748496
0.018763332031982
0.017528106375431
0.016296004840917
0.01506763358841
0.013843826650454
0.012625710767823
0.011414537171904
0.010211582996513
0.0090181445724823
0.007835535340503
0.0066650741840009
0.0055080869518419
0.0043659137077352
0.0032399046313156
0.002131408750742
0.0010417593035689
-2.7717689021956e-05
-0.0010757159351535
-0.002100954715784
-0.0031021824828891
-0.0040781821933077
-0.0050277714800226
-0.0059498148875491
-0.0068432129053955
-0.0077069300094452
-0.0085399535331139
-0.0093413691883435
-0.010110231543643
-0.010845788145319
-0.011547090697888
-0.012213649298858
-0.012844334105987
-0.013439151443997
-0.013996360211261
-0.014516960747071
-0.014997283734976
-0.015440158423854
-0.015834183693206
-0.016181051608347
-0.016428532166805
0.032833130068599
0.031553037002997
0.030143794817965
0.028731685109281
0.027360507353405
0.026018583975601
0.024682799366791
0.023341151834391
0.021992930578155
0.020642075460084
0.019292500538188
0.017946471978979
0.016604911959576
0.015268377186508
0.013937723309507
0.012614161331441
0.011299046869275
0.0099937570799035
0.0086996818640501
0.0074182269703423
0.0061508058624225
0.0048988426997201
0.0036637804502173
0.0024470755551226
0.0012501863473142
7.4556549482059e-05
-0.0010783727708256
-0.0022071788608075
-0.0033104604663972
-0.0043868443706124
-0.0054349866242335
-0.0064535778558178
-0.0074413478014667
-0.0083970650302688
-0.0093195515298528
-0.010207658203433
-0.011060318229989
-0.011876446590621
-0.012655126421115
-0.013395262796251
-0.01409619798227
-0.014756621516993
-0.015376413627622
-0.015953528458305
-0.016488972062761
-0.016978441282281
-0.017424916811883
-0.017815171686917
-0.018150130281231
-0.018367619550128
0.034697064327135
0.033297058875388
0.031741116813824
0.030185872065733
0.028683406870821
0.027217621409462
0.025759552708518
0.024294742542218
0.022822773217004
0.021348651677523
0.019877008267907
0.018410315704292
0.016949450853876
0.015494922068825
0.014047627563447
0.012608889395992
0.011180191015861
0.0097630282506375
0.0083589011135505
0.0069693236834599
0.0055958206342453
0.0042399318123154
0.0029032203561848
0.0015872656926514
0.00029365185788595
-0.0009760508816727
-0.0022202703223356
-0.0034374506929169
-0.0046260539867477
-0.0057845688996931
-0.0069115071516277
-0.0080054150397133
-0.0090648697834881
-0.010088490383943
-0.01107493631135
-0.012022904518304
-0.012931155398213
-0.013798442629008
-0.014623667680015
-0.015405559310904
-0.016143278795287
-0.016835300196465
-0.0174813603708
-0.018079080258173
-0.01862946564299
-0.019127512390185
-0.019576419495353
-0.019960886370105
-0.020280882124086
-0.020463297747517
0.036718816977458
0.035190636885854
0.033475950990041
0.031766666687876
0.030123763087251
0.028525452216956
0.026935987358223
0.025338348198476
0.023732684213906
0.022125296525843
0.020521599801677
0.018924252790892
0.017334062894852
0.015751498219005
0.014177531878781
0.012613632014987
0.011061438215747
0.009522586903253
0.0079987065895369
0.0064914385033532
0.0050024388893246
0.0035333840741328
0.0020859777024865
0.00066194197356949
-0.0007369942276389
-0.002109115121547
-0.0034526991603181
-0.0047660387385062
-0.006047440963222
-0.0072952366423241
-0.0085077755475498
-0.0096834394483389
-0.010820634651749
-0.011917810266911
-0.012973445447177
-0.013986061862932
-0.014954229001254
-0.015876517378269
-0.016751629418318
-0.017578093434607
-0.018354871359793
-0.019080201122241
-0.01975364937143
-0.020372494252847
-0.020937730643936
-0.021443571290193
-0.021893633986272
-0.022270089394519
-0.02257228905418
-0.022715148407649
0.038900252765832
0.037236569087999
0.035351601729768
0.033477923256974
0.03168592556433
0.02994672738218
0.028216877138272
0.026476778737289
0.024727488327595
0.022976836752311
0.021231068346579
0.019492989355752
0.017763316738399
0.016042499380601
0.014331627350377
0.012632356987138
0.010946516224162
0.0092759061455282
0.0076223062611298
0.0059875084114856
0.0043733249288546
0.0027815934755933
0.0012141818122468
-0.00032702216862928
-0.0018401226895346
-0.0033232362313253
-0.0047744706433315
-0.0061919441824293
-0.0075737890638071
-0.0089181558714642
-0.010223212588886
-0.011487152928253
-0.012708195266916
-0.013884593639504
-0.015014632100729
-0.016096630707582
-0.017128956654185
-0.018109970499491
-0.019038166071567
-0.019911847180668
-0.020729767715637
-0.021489907321795
-0.022191656456559
-0.022831933814496
-0.023411711623176
-0.023924402717308
-0.024374153239366
-0.024740111699048
-0.025021846820374
-0.025119664315128
0.041241697722693
0.039436038124234
0.037370000802087
0.035322444146754
0.033373452233549
0.031485477113779
0.029606483251378
0.027714415662889
0.025811671513955
0.023907856852953
0.022010052429937
0.020121146976969
0.01824175004705
0.016372333349124
0.014514164746048
0.012669136587797
0.010839298215137
0.009026642402367
0.0072331256702132
0.0054607190785664
0.0037114216235827
0.0019872624064426
0.00029030114830309
-0.0013773822498925
-0.0030136993671576
-0.004616573866707
-0.0061839186080331
-0.0077136520678181
-0.0092037086601727
-0.010652031791365
-0.012056587204903
-0.013415352041506
-0.014726341531961
-0.015987581971297
-0.017197155680729
-0.018353140745187
-0.01945370768718
-0.020496960924659
-0.021481204107772
-0.022404467448882
-0.023265325620107
-0.024061455171832
-0.02479210640498
-0.025453803673085
-0.026047518915777
-0.026565889510958
-0.02701349073196
-0.027366560971335
-0.027624994974572
-0.027671265051642
0.043741681847467
0.041788384666723
0.039531439869811
0.037301698302107
0.03518880708467
0.033144794418512
0.031108251716177
0.029054950664485
0.026989160033672
0.024922499314795
0.022862847626131
0.020813089998735
0.01877372624355
0.016745316833521
0.014729379682463
0.012728094910506
0.010743768047674
0.0087786137818281
0.0068347990829152
0.0049145093360322
0.0030199654657232
0.0011534237225621
-0.00068282964318153
-0.0024864904329373
-0.0042552507074849
-0.0059868121434689
-0.0076788639358488
-0.0093290955801643
-0.010935217370334
-0.012494933321932
-0.014005983322313
-0.015466095582213
-0.016873069467699