/*--------------------------------*- C++ -*----------------------------------*\
| =========                 |                                                 |
| \\      /  F ield         | OpenFOAM: The Open Source CFD Toolbox           |
|  \\    /   O peration     | Version:  2112                                  |
|   \\  /    A nd           | Website:  www.openfoam.com                      |
|    \\/     M anipulation  |                                                 |
\*---------------------------------------------------------------------------*/
FoamFile
{
    version     2.0;
    format      ascii;
    arch        "LSB;label=32;scalar=64";
    class       surfaceScalarField;
    location    "12.6";
    object      phi;
}
// * * * * * * * * * * * * * * * * * * * * * * * * * * * * * * * * * * * * * //

dimensions      [0 3 -1 0 0 0 0];

oriented        oriented;

internalField   nonuniform List<scalar> 
43645
(
0.39512375955971
-4.8865320659297e-06
0.39513838297044
-1.4623454289364e-05
0.3951627375268
-2.4354603495837e-05
0.39519674939585
-3.4011917741084e-05
0.39524032782489
-4.3578477932258e-05
0.39529338520572
-5.3057429193944e-05
0.39535583306209
-6.244790379745e-05
0.3954275812372
-7.1748221437003e-05
0.3955085376478
-8.0956455699723e-05
0.39559860948981
-9.0071885886184e-05
0.39569769322122
-9.9083774012871e-05
0.39580567509715
-0.00010798191731448
0.39592242073344
-0.00011674567642552
0.3960477933672
-0.00012537267275072
0.39618163732719
-0.00013384399783104
0.396323813964
-0.000142176673639
0.39647415039207
-0.00015033646390492
0.39663251150846
-0.00015836115139649
0.39679867989868
-0.00016616842443516
0.3969725268592
-0.00017384699413492
0.39715374622861
-0.00018121940246808
0.39734225526392
-0.00018850906801555
0.3975375890745
-0.00019533384297555
0.39773982128646
-0.00020223224424376
0.39794817209988
-0.00020835084563812
0.39816311887723
-0.00021494680968733
0.39838319713852
-0.00022007829376075
0.39860984546115
-0.00022664835499156
0.39884005919735
-0.00023021376820848
-0.000237420689062
0.39907747985362
0.37294711124463
-9.4431025625181e-06
0.37296085040033
-2.8362682414713e-05
0.37298390300925
-4.7407286180839e-05
0.3730162074092
-6.6316391359748e-05
0.37305768451532
-8.5055656749252e-05
0.37310826025294
-0.00010363323818342
0.37316785973329
-0.00012204745394594
0.37323640518708
-0.00014029374342769
0.37331381629174
-0.00015836762687469
0.37340001303311
-0.00017626869211305
0.37349490699309
-0.00019397779714647
0.37359840185101
-0.00021147683677868
0.37371038165845
-0.00022872554373965
0.37383072724469
-0.00024571831737023
0.37395929836763
-0.00026241517763363
0.37409596928431
-0.00027884764586725
0.37424057848384
-0.00029494571769507
0.37439300199145
-0.00031078471223448
0.37455303504507
-0.00032620153028377
0.37472056321998
-0.00034137522053969
0.37489529718006
-0.00035595341337145
0.37507717086407
-0.00037038280244583
0.37526573817277
-0.0003839012017366
0.3754610873788
-0.0003975815002371
0.37566245878442
-0.00040972230117332
0.37587033972228
-0.00042282779765708
0.3760832954906
-0.00043303411237252
0.3763027684079
-0.00044612132232461
0.37652581721734
-0.00045326262634649
-0.00046770474931839
0.3767561012272
0.35201536928604
-1.3914933932821e-05
0.35202880017603
-4.1793647132286e-05
0.35205123285914
-6.9840044271739e-05
0.35208262765021
-9.7711256548505e-05
0.35212293049195
-0.00012535857108113
0.35217208684119
-0.00015278965828436
0.35223003651613
-0.00017999719782013
0.35229671405349
-0.00020697134783433
0.35237205156633
-0.00023370520476522
0.35245598479691
-0.00026020198583389
0.35254844579176
-0.00028643885313916
0.35264936349486
-0.00031239459918277
0.35275864829044
-0.00033801039671956
0.35287620628823
-0.00036327637089217
0.35300191662273
-0.00038812556617411
0.35313566986728
-0.00041260094307121
0.35327731426892
-0.00043659017061791
0.35342673962713
-0.00046021012068146
0.35358374981838
-0.00048321177077778
0.35374825305963
-0.00050587851040019
0.35391996921325
-0.00052766961501829
0.35409886709341
-0.00054928073040286
0.35428449705065
-0.00056953120659111
0.35447699689891
-0.00059008139627338
0.35467556719411
-0.00060829264431984
0.3548807783531
-0.00062803900511758
0.35509107966468
-0.00064333547290707
0.35530808016832
-0.00066312187500421
0.35552855669974
-0.00067373920566012
-0.00069565217539672
0.35575650407572
0.33225841621288
-1.8287250069038e-05
0.33227155754482
-5.4935046378347e-05
0.33229349229572
-9.1774862776404e-05
0.33232419176101
-0.00012841078873032
0.33236362381885
-0.00016479069449565
0.33241175637304
-0.00020092227655863
0.33246854780713
-0.00023678869431253
0.33253394773584
-0.00027237133730707
0.33260790284079
-0.00030766036868913
0.3326903676396
-0.00034266684193725
0.33278129921174
-0.00037737048077284
0.33288065812209
-0.00041175356339115
0.33298838786011
-0.00044574018687809
0.3331044266155
-0.00047931517693472
0.33322867771992
-0.00051237671971927
0.33336105239729
-0.00054497566831261
0.3335014103132
-0.00057694813315042
0.33364965876062
-0.0006084586138074
0.33380561084697
-0.00063916390191686
0.33396920419253
-0.00066947190018278
0.3341401671694
-0.0006986326355546
0.33431851505814
-0.00072762866259681
0.33450378740814
-0.00075480359983598
0.33469619080616
-0.00078248483766187
0.33489486319087
-0.00080696507250622
0.33510049705277
-0.00083367291091843
0.33531137454839
-0.00085421301277368
0.33552936482524
-0.00088111219609268
0.33575086163178
-0.00089523605525165
-0.00092523923396508
0.33598044864521
0.31361033900138
-2.2568927893117e-05
0.31362322126156
-6.7817366355151e-05
0.31364471741344
-0.00011327107444096
0.31367481734319
-0.00015851077740149
0.31371351530521
-0.0002034887140517
0.31376080481004
-0.00024821183739741
0.31381666586296
-0.00029264980154108
0.31388106635102
-0.00033677187803201
0.31395397097102
-0.00038056503955901
0.31403535730609
-0.00042405322621596
0.31412521281576
-0.00046722603786344
0.31422353623839
-0.00051007703185834
0.31433031096079
-0.00055251495344288
0.3144455141454
-0.00059451840430925
0.31456907890033
-0.0006359415159673
0.31470094263488
-0.00067683944306314
0.31484098016254
-0.00071698569987599
0.31498912186132
-0.00075660035088425
0.31514519324678
-0.00079523532490866
0.31530916953568
-0.00083344822621115
0.31548078986622
-0.0008702530028403
0.31566012833632
-0.00090696716941877
0.31584671105837
-0.00094138635859083
0.31604083258376
-0.00097660640007653
0.31624155338353
-0.0010076859095952
0.31644972236542
-0.001041841930768
0.31666341278182
-0.0010679034676745
0.31688482097796
-0.0011025204309845
0.31710985271584
-0.0011202678310576
-0.0011592000203537
0.31734381346201
0.2960088900834
-2.6757202967855e-05
0.29602150666397
-8.0434001536128e-05
0.2960425530778
-0.00013431754279325
0.2960720420398
-0.0001879997931425
0.29610999894956
-0.00024144567632024
0.29615644709333
-0.00029466003236373
0.29621139165087
-0.00034759440880749
0.29627482212832
-0.00040020240379306
0.29634672480726
-0.00045246776524953
0.29642710471768
-0.00050443318194574
0.29651598505033
-0.00055610641424625
0.29661340915735
-0.00060750118122851
0.29671940710692
-0.00065851294386917
0.29683400209248
-0.00070911342947824
0.29695716319791
-0.00075910265969087
0.29708886037179
-0.00080853665423512
0.29722898863298
-0.00085711399729608
0.29737750814241
-0.00090511989582928
0.29753426170563
-0.00095198892289047
0.29769927115645
-0.00099845771138997
0.29787229074944
-0.0010432726297433
0.29805346590415
-0.0010881423579517
0.29824230982913
-0.0011302303172384
0.29843922266319
-0.0011735192679933
0.29864317758997
-0.0012116408703503
0.29885520833038
-0.0012538727055577
0.29907314748643
-0.0012858426584341
0.29929957259256
-0.0013289455718444
0.29952982513703
-0.0013505204093275
-0.0013994164199935
0.29977004150076
0.27939531385348
-3.0836581174554e-05
0.27940761997355
-9.2740168745182e-05
0.27942814344154
-0.00015484105770172
0.27945692275454
-0.00021677915229229
0.27949401804406
-0.00027854101082316
0.27953948591333
-0.00034012794542495
0.2795933599986
-0.00040146853651548
0.27965565461349
-0.00046249705983122
0.27972638102145
-0.0005231942129256
0.27980557577309
-0.00058362797201047
0.27989330268696
-0.00064383336511361
0.2799896555889
-0.00070385411892194
0.28009471754091
-0.00076357493029073
0.28020856455675
-0.00082296047863532
0.28033120811901
-0.00088174625411365
0.28046265758091
-0.00093998614741903
0.28060283428451
-0.0009972907312643
0.28075173579265
-0.001054021433737
0.28090922853224
-0.0011094816916302
0.28107539063601
-0.0011646198440009
0.28124999761845
-0.0012178796407017
0.28143327882224
-0.0012714235902385
0.28162473801871
-0.0013216895421634
0.28182489790475
-0.0013736791827338
0.28203264070535
-0.0014193836998389
0.28224921078136
-0.0014704428109469
0.28247218119704
-0.0015088131038436
0.28270455633571
-0.0015613207403865
0.28294106328136
-0.0015870273841544
-0.0016471129614997
0.28318875979158
0.26371415519022
-3.4782361083825e-05
0.26372607790339
-0.00010466292368532
0.26374595907816
-0.00017472227403566
0.26377386526223
-0.00024468537730371
0.26380989383684
-0.00031456962542337
0.26385413729392
-0.00038437144156104
0.26390666032714
-0.00045399160768779
0.26396750478529
-0.00052334155494425
0.26403670991271
-0.0005923993761316
0.26411434731802
-0.00066126541207168
0.26420052563826
-0.00073001171891626
0.26429539416299
-0.0007987226762106
0.26439909448185
-0.00086727528056379
0.26451176159908
-0.00093562762637463
0.26463345568134
-0.0010034403658567
0.2647642324554
-0.0010707629502195
0.26490404638378
-0.001137104687548
0.26505294055605
-0.0012029156333665
0.26521081251454
-0.0012673536768469
0.26537780669418
-0.001331614050047
0.26555372770513
-0.0013938006776622
0.26573890135179
-0.0014565972627884
0.26593282860328
-0.0015156168193356
0.266136170794
-0.0015770213992231
0.26634772159127
-0.0016309345228453
0.26656895842581
-0.0016916796714584
0.26679718821826
-0.0017370429223696
0.2670358771909
-0.0018000097389956
0.26727911213208
-0.0018302623505071
-0.0019029325972851
0.2675349317409
0.2489130742407
-3.8563945377204e-05
0.24892452194317
-0.00011611066149675
0.24894361070185
-0.00019381106783359
0.24897043669449
-0.00027151140454342
0.24900513605894
-0.0003492690236771
0.24904783873398
-0.00042707414965988
0.24909864222572
-0.00050479513157263
0.24915761793644
-0.00058231729702369
0.2492248354293
-0.00065961689938034
0.24930040407802
-0.00073683409036743
0.24938448052978
-0.00081408819926556
0.24947727329384
-0.00089151546807543
0.24957898688228
-0.00096898889585903
0.24968982037887
-0.0010464611490965
0.24980988835847
-0.0011235083707489
0.24993929944493
-0.0012001740613782
0.25007804826604
-0.0012758535326695
0.25022623144687
-0.0013510988377699
0.25038378598973
-0.0014249082427608
0.25055093224559
-0.0014987603287235
0.25072751345695
-0.0015703819114926
0.2509139634983
-0.0016430473265379
0.25110979055111
-0.0017114438943772
0.2513158088157
-0.001783039686133
0.25153073230731
-0.0018458580367464
0.25175628851341
-0.001917235900057
0.25198952376845
-0.0019702781999631
0.25223438711652
-0.0020448731095114
0.25248432678397
-0.0020802020397214
-0.0021669962949783
0.25274839045824
0.23494267119208
-4.2147606502813e-05
0.23495354229947
-0.00012698179942754
0.23497167247376
-0.00021194127252047
0.23499718808494
-0.00029702704574192
0.23503026432802
-0.0003823452961827
0.23507106900216
-0.00046787885271124
0.2351197332153
-0.000553459372955
0.23517635905129
-0.0006389431607188
0.23524104786846
-0.00072430574352919
0.2353139483996
-0.00080973464791938
0.23539526724306
-0.00089540706839219
0.23548527426632
-0.00098152251642357
0.2355842398717
-0.0010679545255842
0.23569243070948
-0.0011546520106844
0.23581002061311
-0.0012410982975059
0.23593717649118
-0.0013273299621036
0.23607394015747
-0.0014126172210243
0.23622046869839
-0.0014976274003843
0.23637674774866
-0.0015811873142444
0.23654308116898
-0.0016650937700011
0.23671936263951
-0.0017466634026254
0.23690614220566
-0.0018298269131483
0.23710295038506
-0.0019082520939747
0.23731076382966
-0.0019908531508892
0.23752823551959
-0.0020633297466528
0.23775735284608
-0.002146353246556
0.23799492442064
-0.0022078497943993
0.23824538284729
-0.002295331555752
0.23850156591166
-0.0023363851229498
-0.0024389528821454
0.23877352247861
0.22175632150388
-4.549934479196e-05
0.2217665114069
-0.00013717172815407
0.22178351382893
-0.00022894372015291
0.2218074844328
-0.00032099767496085
0.22183863630621
-0.00041349719451401
0.22187717413926
-0.00050641671034848
0.22192326224341
-0.00059954750122288
0.22197703340583
-0.00069271434690735
0.22203862122276
-0.00078589358372599
0.22210821405754
-0.0008793275055967
0.22218606901895
-0.00097326205216708
0.22227251753781
-0.0010679710572618
0.22236789732316
-0.001163334332381
0.22247254388773
-0.0012592985963288
0.22258669426327
-0.0013552486936051
0.22271057689863
-0.0014512126176916
0.22284428804196
-0.0015463283841209
0.22298804953746
-0.001641388915378
0.22314190664859
-0.0017350444444792
0.22330624951721
-0.0018294366575269
0.22348103936414
-0.0019214532681378
0.22366694035303
-0.0020157279205041
0.22386353263955
-0.0021048443987082
0.22407194585109
-0.0021992663805802
0.22429081466193
-0.0022821985754411
0.22452236671202
-0.0023779053145526
0.22476324257895
-0.0024487256790619
0.22501832216405
-0.0025504111582534
0.22527991952754
-0.0025979825031341
-0.0027180343393937
0.22555900096686
0.20931002077268
-4.8588188315183e-05
0.20931942992725
-0.00014658090472704
0.20933514442773
-0.00024465824260377
0.20935734671275
-0.00034319998182247
0.20938628561943
-0.00044243612277401
0.20942220086468
-0.00054233197701178
0.20946528857255
-0.00064263523022543
0.20951571104218
-0.00074313683751198
0.20957363323943
-0.00084381580165125
0.20963928188798
-0.00094497617463294
0.20971296353397
-0.0010469437183069
0.20979506930134
-0.001150076844574
0.20988600389647
-0.0012542689471004
0.20998617048477
-0.001359465203988
0.21009587220926
-0.001464950437083
0.2102153994083
-0.0015707398355105
0.21034491035296
-0.0016758393471783
0.21048469190755
-0.001781170488167
0.21063486279056
-0.0018852153453423
0.21079589391445
-0.0019904677990751
0.21096784260014
-0.0020934019711742
0.2111514617061
-0.0021993470436425
0.2113464458393
-0.0022998285487861
0.21155400597442
-0.0024068265324404
0.21177289054219
-0.0025010831596749
0.212005406155
-0.0026104209436758
0.21224829186334
-0.0026916114034214
0.21250650147575
-0.0028086207862845
0.21277246733956
-0.0028639483818279
-0.0030031445334068
0.21305757751765
0.19756223495228
-5.138662828998e-05
0.19757077801032
-0.00015512398152306
0.19758506433069
-0.0002589445817585
0.19760530079049
-0.00036343646038851
0.19763176880158
-0.00046890415249673
0.19766474011196
-0.00057530330598445
0.19770444023132
-0.00068233536804913
0.1977510590781
-0.00078975570273803
0.19780479115844
-0.00089754790028475
0.19786589911918
-0.0010060841536478
0.19793473584457
-0.0011157804617927
0.19801174857453
-0.0012270895925862
0.19809740600194
-0.0013399263923459
0.19819217622052
-0.0014542354403309
0.19829642853617
-0.0015692027702424
0.198410514299
-0.0016848256157405
0.19853465889548
-0.0017999839607803
0.19866921316858
-0.0019157247782595
0.19881438018014
-0.0020303823736036
0.19897070728056
-0.0021467949160229
0.19913836761326
-0.0022610623201094
0.19931818889743
-0.0023791683438719
0.1995100257009
-0.0024916653680068
0.19971511794152
-0.0026119187886197
0.19993245492978
-0.00271842016318
0.20016424516339
-0.0028422111923284
0.20040764766379
-0.0029350139185332
0.20066721295233
-0.0030681860890822
0.20093628892818
-0.0031330243712433
-0.0032927110453075
0.20122585542558
0.18647376331933
-5.3872592955502e-05
0.18648137266471
-0.00016273334324802
0.18649411747318
-0.00027168940666714
0.18651222657269
-0.00038154557641991
0.18653601017138
-0.00049268776764989
0.18656576819458
-0.0006050613457232
0.18660175201871
-0.00071831920868843
0.18664417608012
-0.00083217978075827
0.18669326119714
-0.0009466330338773
0.18674930246936
-0.0010621254425422
0.1868126945881
-0.0011791725971525
0.18688393600518
-0.0012983310263579
0.18696355359512
-0.0014195439988829
0.18705207661064
-0.0015427584724869
0.18714993641001
-0.0016670625861018
0.18725754532396
-0.001792434546162
0.18737519418665
-0.0019176328397396
0.18750330136212
-0.0020438319699037
0.1876421527446
-0.0021692337719979
0.18779238088232
-0.0022970230694883
0.18795426704576
-0.0024229484989774
0.18812873923393
-0.0025536405472545
0.18831578511804
-0.0026787112669627
0.1885167371284
-0.0028128708135697
0.18873076284201
-0.0029324458910045
0.18896010450167
-0.0030715528659051
0.18920221072798
-0.0031771201583729
0.18946151498222
-0.0033274903563567
0.1897318613422
-0.003403370743598
-0.0035848011220129
0.19002395140567
0.17600760658466
-5.6030431131701e-05
0.17601423405366
-0.00016936082676509
0.17602535545193
-0.0002828108195939
0.17604121846143
-0.00039740860070894
0.17606215760513
-0.00051362692613829
0.17608849639614
-0.00063140015163936
0.17612050785004
-0.00075033067751584
0.17615842703
-0.00087009897579877
0.17620249698338
-0.00099070300235849
0.1762530403778
-0.0011126688522317
0.17631048762784
-0.0012366198624819
0.17637538175151
-0.0013632251654781
0.17644830071192
-0.0014924629747471
0.1765298287473
-0.0016242865234385
0.17662045343883
-0.0017576872931554
0.17672064552814
-0.00189262665105
0.17683075726913
-0.0020277445961621
0.17695127619587
-0.0021643509120172
0.17708256608304
-0.0023005236743094
0.17722535115387
-0.0024398081552642
0.17738001166129
-0.0025776090210143
0.17754759326281
-0.0027212221631014
0.1777281952467
-0.0028593132647686
0.17792329261923
-0.003007968199655
0.17813216590532
-0.0031413191901993
0.17835722768184
-0.0032966146551364
0.17859602193496
-0.0034159144237752
0.17885320025322
-0.00358466868638
0.17912262406314
-0.0036727945646607
-0.003877501651896
0.17941532458104
0.16612884286013
-5.7851323524187e-05
0.16613446072683
-0.00017497870670726
0.16614391040871
-0.00029226051487352
0.1661574547963
-0.00041095300181464
0.16617544779202
-0.00053161993537301
0.16619823140352
-0.00065418377674415
0.16622609553322
-0.00077819482082621
0.16625929133541
-0.00090329479170206
0.16629807931279
-0.0010294909934688
0.1663428039228
-0.0011573934761236
0.16639392424631
-0.0012877401999202
0.16645201950448
-0.0014213204377621
0.16651771016284
-0.0015581536472773
0.16659162730539
-0.0016982036803367
0.16667430789193
-0.0018403678940603
0.16676627514138
-0.0019845939149754
0.16686793838878
-0.0021294078579395
0.16697985045761
-0.0022762629951808
0.16710244971231
-0.0024231229431191
0.16723654905508
-0.0025739075119102
0.16738262545298
-0.0027236854324032
0.16754184044162
-0.002880437164837
0.16771440652788
-0.003031879363604
0.16790194124294
-0.0031955029267912
0.16810384589008
-0.0033432238488396
0.16832271016118
-0.0035154789372144
0.16855619046173
-0.0036493947347975
0.16880918041316
-0.0038376586477224
0.1690755777053
-0.0039391918661957
-0.004168566726461
0.16936664276968
0.15680451064363
-5.9333288580144e-05
0.15680911149404
-0.00017957956948185
0.15681687481286
-0.00030002384615775
0.15682807480819
-0.00042215300960467
0.15684307951958
-0.0005466246591106
0.15686224404155
-0.00067334831100876
0.15688587009277
-0.00080182088419569
0.1569142199858
-0.00093164469684374
0.15694756650837
-0.0010628375280246
0.15698626952818
-0.0011960965079667
0.15703080904315
-0.0013322797269049
0.15708179116089
-0.0014723025676673
0.15713986913581
-0.0016162316344225
0.15720571105761
-0.0017640456145514
0.1572798949842
-0.0019145518331396
0.15736298893808
-0.0020676878814701
0.15745545316443
-0.0022218720968652
0.15755789901598
-0.0023787088592616
0.15767083405196
-0.002536057991382
0.15779515275721
-0.0026982262291646
0.15793142431927
-0.0028599570059938
0.1580809202929
-0.0030299331494665
0.15824396638083
-0.0031949254618712
0.15842231945674
-0.0033738560123304
0.15861550864279
-0.003536413043765
0.1588262945389
-0.003726264841483
0.15905246647708
-0.003875566680514
0.15929915502918
-0.0040843472067453
0.15956035941879
-0.004200396262356
-0.0044556435472414
0.15984743623231
0.14800349846398
-6.0480833583073e-05
0.14800709445527
-0.00018317557278593
0.14801318902011
-0.00030611842292582
0.1480220636481
-0.00043102764925399
0.14803409527363
-0.00055865629588405
0.14804964665282
-0.00068889970106341
0.14806902632784
-0.00082120056961231
0.14809250273512
-0.00095512111416799
0.14812035564018
-0.0010906904427358
0.14815295347747
-0.0012286943547141
0.14819078908368
-0.0013701153423826
0.14823448537578
-0.0015159988690613
0.14828471828209
-0.001666464550042
0.14834218195726
-0.0018215092992083
0.14840748649537
-0.0019798563808032
0.14848123503294
-0.0021414364287511
0.14856393175338
-0.0023045688269989
0.14865623696083
-0.002471014076351
0.14875872021062
-0.0026385412505478
0.14887234680196
-0.0028118528295105
0.14899776995115
-0.0029853801636164
0.14913636193808
-0.0031685251441097
0.14928855607752
-0.0033471196081457
0.14945624732793
-0.0035415472686071
0.14963909753387
-0.0037192632545595
0.14984003919637
-0.0039272065078398
0.15005699388963
-0.0040925213767976
0.15029531928109
-0.0043226726005717
0.15054910005278
-0.0044541770362205
-0.0047363436811651
0.15082980018393
0.13969644052505
-6.1304110130521e-05
0.13969906119218
-0.00018579625277356
0.1397035339671
-0.00031059121045203
0.13971014358546
-0.00043763727947817
0.1397192703595
-0.00056778308080093
0.13973127918341
-0.00070090853490545
0.13974648076934
-0.00083640216446494
0.13976514496959
-0.00097378532248158
0.13978755373363
-0.0011130992140144
0.13981407711872
-0.0012552177464885
0.13984521284407
-0.0014012510739661
0.13988158973319
-0.0015523757642605
0.13992389645201
-0.0017087712748489
0.13997284089749
-0.0018704537507798
0.14002905690765
-0.0020360723971301
0.14009317066291
-0.0022055501903221
0.14016572413538
-0.0023771223057669
0.14024741312325
-0.0025527030704578
0.14033886291063
-0.0027299910438527
0.14044109349577
-0.0029140834201167
0.14055483376049
-0.0030991204330735
0.14068154060456
-0.0032952319919873
0.14082174385528
-0.0034873228615127
0.14097746698128
-0.0036972703959435
0.14114850118537
-0.0038902974586121
0.14133797945975
-0.0041166847808014
0.14154394783355
-0.0042984897480584
0.14177208219109
-0.0045508069548009
0.14201629000421
-0.0046983848460734
-0.0050080875450132
0.14228803387086
0.13185561837599
-6.1817770225893e-05
0.1318573074137
-0.00018748530715807
0.13186023011986
-0.00031351393315811
0.13186467052832
-0.00044207770318948
0.13187100704515
-0.00057411961114048
0.1318796014437
-0.00070950294518735
0.13189076216303
-0.00084756289377531
0.13190475577258
-0.00098777894047746
0.13192186205432
-0.0011302055028424
0.13194244583536
-0.0012758015336384
0.13196700261326
-0.0014258078572073
0.13199615587275
-0.0015815290287087
0.1320305984414
-0.0017432138482385
0.13207103803353
-0.0019108933476584
0.13211812629683
-0.0020831606652327
0.13217249651776
-0.002259920416165
0.13223472636123
-0.0024393521541316
0.13230552570465
-0.0026235024186559
0.13238557589393
-0.0028100412375299
0.13247592283197
-0.0030044303619567
0.13257737437395
-0.0032005719779208
0.13269143999317
-0.0034092976128688
0.13281874737479
-0.0036146302432839
0.13296142057939
-0.003839943598946
0.13311934299996
-0.0040482198757414
0.13329588136112
-0.0042932231366403
0.13348915129829
-0.0044917596783644
0.1337053821192
-0.0047670377679124
0.1339382080162
-0.004931210735509
-0.0052685193371639
0.1341986398154
0.12445486811055
-6.2039561836663e-05
0.12445568017244
-0.00018829739532872
0.12445714495479
-0.00031497874251014
0.12445954020914
-0.00044447298301987
0.12446323748485
-0.00057781690984223
0.1244685918777
-0.00071485735838904
0.12447590640033
-0.00085487743418764
0.12448544073653
-0.00099731329222965
0.12449746856719
-0.001142233347173
0.12451234189726
-0.0012906748759831
0.12453054623395
-0.0014440122051275
0.12455268759482
-0.0016036704002149
0.12457945582313
-0.0017699820868157
0.12461154427485
-0.0019429818095664
0.12464962115688
-0.0021212375574187
0.12469430778091
-0.0023046070503981
0.12474622334763
-0.0024912677309501
0.12480605756866
-0.0026833366495654
0.12487456367071
-0.0028785473489232
0.12495275429178
-0.0030826209915391
0.1250415534179
-0.0032893711113367
0.12514244025816
-0.0035101844588062
0.1252562067236
-0.0037283967124381
0.12538499643046
-0.003968733307241
0.12552881281451
-0.0041920362587734
0.1256911737479
-0.0044555840665186
0.12587011839896
-0.0046707043238266
0.12607257334945
-0.0049694927115645
0.12629228534884
-0.0051509227283835
-0.0055167478912318
0.12654051390828
0.11746949512161
-6.199093831577e-05
0.11746949454096
-0.00018829685888509
0.11746961180244
-0.00031509605013321
0.11747010902107
-0.00044497024635524
0.11747134694711
-0.00057905487767259
0.11747367217018
-0.0007171826199632
0.11747737820482
-0.00085858350416812
0.11748271695712
-0.0010026520771449
0.11748995469564
-0.0011494711160556
0.11749942519183
-0.0013001454008613
0.11751159577637
-0.0014561828171442
0.11752704227123
-0.0016191169217907
0.11754644206138
-0.0017893819032121
0.11757046011965
-0.0019669998938648
0.11759978108992
-0.0021505585535856
0.11763499616505
-0.0023398221512902
0.11767677976949
-0.0025330513609131
0.11772575847785
-0.0027323153829682
0.11778279578726
-0.0029355846826021
0.11784877098578
-0.0031485962130856
0.1179248223928
-0.0033654225397196
0.11801220440106
-0.0035975664862057
0.11811208278963
-0.0038282751176013
0.11822633998303
-0.00408299051424
0.11835544534244
-0.0043211416286936
0.11850281801386
-0.0046029567451712
0.11866628798943
-0.0048341743038775
0.11885341023457
-0.0051566149594659
0.11905649661569
-0.0053540091125166
-0.0057542393212386
0.11929398803981
0.1108761967529
-6.1702847460925e-05
0.11087546278087
-0.00018756295592711
0.11087436253667
-0.00031399587788104
0.11087312876704
-0.00044373654728225
0.11087210927369
-0.00057803545170096
0.11087164555096
-0.00071671896100325
0.11087201795171
-0.0008589559652673
0.1108734709639
-0.0010041051467989
0.11087625850064
-0.0011522587079538
0.11088069032008
-0.0013045772737725
0.11088720892159
-0.0014627014708919
0.11089635333726
-0.0016282613889251
0.11090878095635
-0.0018018095732056
0.11092512278617
-0.0019833417742633
0.11094607590602
-0.002171511723683
0.1109721893016
-0.0023659355968183
0.11100419642913
-0.0025650585378237
0.11104262198441
-0.0027707409868747
0.11108847881594
-0.0029814415614486
0.11114240014694
-0.0032025175896407
0.111205891866
-0.003428914301838
0.11127967701382
-0.0036713516741187
0.1113657177553
-0.0039143158956565
0.11146489404665
-0.0041821668384658
0.11157914223324
-0.0044353898441512
0.11171061486602
-0.0047344294027534
0.11185879716565
-0.0049823566246072
0.11203059367372
-0.0053284114863907
0.11221411053762
-0.0055375259953114
-0.0059805425655257
0.11244041375743
0.1046529753376
-6.1212296368306e-05
0.1046516215713
-0.00018620928515921
0.1046494454619
-0.0003118198658489
0.10464666557533
-0.00044095675631507
0.10464361157556
-0.00057498154431102
0.10464060185736
-0.00071370933167294
0.104637924319
-0.00085627851257078
0.10463583301115
-0.0010020139219917
0.10463456369186
-0.0011509894697038
0.10463438788426
-0.0013044015457651
0.10463570347956
-0.0014640171447711
0.10463900029935
-0.0016315582865609
0.10464490623359
-0.0018077155847783
0.10465402811565
-0.0019924637331675
0.10466707653323
-0.0021845602176608
0.10468457311119
-0.0023834322505164
0.1047072982065
-0.0025877837080568
0.10473566570287
-0.0027991085568021
0.1047708229523
-0.0030165988825675
0.10481309069608
-0.0032447854022871
0.10486444007694
-0.0034802637480962
0.10492477539342
-0.0037316870516322
0.10499740725675
-0.003986947815478
0.10508100410257
-0.0042657637358633
0.10518092164218
-0.0045353074304711
0.10529414835007
-0.0048476561521035
0.10542833440789
-0.0051165427193897
0.1055826551307
-0.0054827322432104
0.10575726900647
-0.0057121399052915
-0.0061855295928578
0.10596225599
0.09877900945816
-6.0503585984576e-05
0.098777162808435
-0.00018436274817902
0.098774009940772
-0.00030866711161228
0.098769843838042
-0.00043679076506969
0.098765029738571
-0.00057016755345134
0.098759726263042
-0.000708405961869
0.098754282891297
-0.00085083524407658
0.098748967792597
-0.00099669892473194
0.09874401681785
-0.0011460385951342
0.098739681633538
-0.0013000664608883
0.098736299555574
-0.0014606351657347
0.098734287230995
-0.0016295460606388
0.098734208525789
-0.0018076369779078
0.098736630535738
-0.001994885841191
0.098742254577556
-0.0021901843570357
0.098751603811575
-0.0023927815814657
0.098765486091847
-0.0026016660840577
0.098784270058312
-0.0028178926172707
0.098809154536012
-0.0030414834513995
0.098840247012237
-0.0032758779657471
0.098879807185675
-0.0035198240035026
0.098927101223345
-0.0037789811653432
0.098986747152583
-0.0040465938142987
0.099055238147088
-0.0043342547936268
0.099142315409761
-0.0046223847499439
0.099236726898204
-0.0049420676908501
0.099359758699171
-0.005239574564907
0.099483816178794
-0.0056067897646045
0.099653112146279
-0.0058814359170857
0.099867851327757
-0.0064002688302123
0.39441765362051
0.0046598261999543
0.38991650532897
0.0045011482589449
0.38557852952938
0.0043379757670367
0.38140809832429
0.0041704311721814
0.37740944557911
0.0039986527117911
0.37358666384794
0.0038227816971063
0.36994369549739
0.0036429683158914
0.36648432480062
0.003459370661393
0.36321217155728
0.0032721532073819
0.36013068607286
0.0030814854477979
0.35724314481132
0.0028875412244245
0.35455264588225
0.0026904988913791
0.35206210408068
0.0024905417635119
0.34977424579065
0.002287858251532
0.3476916044074
0.0020826413445234
0.34581651630246
0.0018750880659031
0.34415111750519
0.0016653987581757
0.34269734081106
0.0014537766548542
0.34145691360706
0.0012404271647932
0.34043135575181
0.0010255578159978
0.33962197765381
0.00080937805890863
0.33902987686334
0.00059210075140705
0.33865593120667
0.00037394561783501
0.33850076633082
0.00015516483705126
0.33856481852001
-6.4052227722263e-05
0.33884857353426
-0.00028375505276476
0.3393519179213
-0.00050334442530285
0.34007465488436
-0.00072273700131615
0.34101637897964
-0.00094172413330309
0.34217646417083
-0.0011600852292093
0.34355406122292