/*--------------------------------*- C++ -*----------------------------------*\
| =========                 |                                                 |
| \\      /  F ield         | OpenFOAM: The Open Source CFD Toolbox           |
|  \\    /   O peration     | Version:  2112                                  |
|   \\  /    A nd           | Website:  www.openfoam.com                      |
|    \\/     M anipulation  |                                                 |
\*---------------------------------------------------------------------------*/
FoamFile
{
    version     2.0;
    format      ascii;
    arch        "LSB;label=32;scalar=64";
    class       surfaceScalarField;
    location    "18.2";
    object      phi;
}
// * * * * * * * * * * * * * * * * * * * * * * * * * * * * * * * * * * * * * //

dimensions      [0 3 -1 0 0 0 0];

oriented        oriented;

internalField   nonuniform List<scalar> 
43645
(
0.39512389126707
-5.0181807456913e-06
0.39513891272077
-1.5021426893797e-05
0.39516388702871
-2.4974278883829e-05
0.39519879449522
-3.4907436425202e-05
0.39524361893089
-4.4824405373544e-05
0.39529834510384
-5.4726142847379e-05
0.3953629518169
-6.4606683416921e-05
0.39543740949653
-7.4457650483647e-05
0.3955216766532
-8.426712812561e-05
0.39561570319856
-9.4026517374944e-05
0.39571942854838
-0.00010372532245108
0.39583279238331
-0.00011336380811972
0.39595572603869
-0.00012293362918448
0.39608816672103
-0.00013244065669008
0.39623002809661
-0.00014186135052149
0.39638123181684
-0.00015120369569084
0.3965416474981
-0.00016041565729043
0.39671117710501
-0.00016952958341244
0.39688962618807
-0.0001784490600909
0.39707690223923
-0.00018727602859967
0.39727271773246
-0.00019581547114487
0.39747704332959
-0.00020432557539016
0.39768942267147
-0.00021237932057234
0.39791001129144
-0.00022058859896114
0.39813800406291
-0.00022799275082909
0.39837401573937
-0.00023601165605959
0.3986164802375
-0.00024246447807022
0.39886709438492
-0.00025061412781759
0.39912258740301
-0.00025549299916392
-0.00026451636490318
0.3993871037869
0.37294722477102
-9.6881706153562e-06
0.37296127522163
-2.907183389277e-05
0.37298483841154
-4.8537424303508e-05
0.37301788598711
-6.7954967455137e-05
0.3730603967201
-8.7335094301001e-05
0.3731123581056
-0.00010668748492219
0.37317375544016
-0.00012600397535002
0.37324456604294
-0.00014526821140612
0.37332475429089
-0.00016445533505929
0.37341427497759
-0.00018354716383706
0.37351307258635
-0.00020252289183789
0.37362109311402
-0.00022138429719093
0.37373827651539
-0.00024011699281016
0.37386457060293
-0.00025873470724991
0.37399990186097
-0.00027719257239122
0.37414420538923
-0.00029550718849148
0.37429736595059
-0.00031357618395884
0.37445929972586
-0.00033146332462151
0.3746298291956
-0.00034897849645303
0.37480887580979
-0.00036632260995423
0.3749961719552
-0.00038311158432716
0.37519170045703
-0.00039985404544615
0.37539503068384
-0.00041570951612966
0.37560632476352
-0.00043188264775947
0.37582481644063
-0.00044648439752318
0.37605111361036
-0.00046230879566512
0.37628372152501
-0.00047507236301909
0.37652429944079
-0.00049119201452199
0.37676972687298
-0.00050092040358527
-0.00051885479923626
0.37702406533556
0.35201546007884
-1.4250680923602e-05
0.35202915121463
-4.2762923246744e-05
0.35205199131411
-7.1377477050473e-05
0.35208396356187
-9.9927168833379e-05
0.35212505320393
-0.00012842469073327
0.35217525053295
-0.00015688476913512
0.35223454367693
-0.00018529707547706
0.35230291384356
-0.00021363833506221
0.35238032946698
-0.00024187091647096
0.35246674933537
-0.00026996699110786
0.35256212242283
-0.00029789593916838
0.35266640165456
-0.00032566348966944
0.35277953688159
-0.00035325218158054
0.35290148990914
-0.00038068769736799
0.35303220322037
-0.00040790584713835
0.35317163106292
-0.00043493499532817
0.35331967641447
-0.00046162150066873
0.35347627711235
-0.00048806398831121
0.35364127323142
-0.00051397458211875
0.35381461075718
-0.00053966010284634
0.3539960369181
-0.00056453771305309
0.35418556458405
-0.00058938167962621
0.3543827704845
-0.00061291538537553
0.35458785773685
-0.000636969869229
0.35480004880699
-0.00065867543726282
0.35502001555119
-0.00068227550968817
0.35524620734884
-0.00070126413090071
0.35548039616476
-0.00072538080122389
0.35571930049324
-0.00073982470418331
-0.0007667341008612
0.35596717982345
0.33225848296135
-1.8689643055253e-05
0.33227181226462
-5.6092184522427e-05
0.33229402743377
-9.3592603852872e-05
0.33232510049431
-0.0001310001872878
0.33236501353004
-0.00016833768505424
0.33241375945618
-0.00020563065460122
0.33247133135282
-0.00024286893231887
0.3325377156306
-0.00028002257385405
0.33261288490284
-0.00031704015065898
0.33269680167406
-0.00035388372510149
0.33278941941555
-0.00039051364437943
0.33289069911926
-0.00042694315794385
0.33300060275455
-0.00046315578237908
0.33311910981416
-0.00049919472326798
0.33324618287201
-0.00053497887218603
0.33338180050052
-0.00057055259173337
0.3335258881929
-0.00060570916176336
0.33367841114518
-0.00064058690989049
0.33383923038719
-0.00067479379414544
0.33400832298968
-0.00070875267580371
0.33418545249008
-0.00074166718452667
0.33437067051731
-0.00077459967826975
0.334563558606
-0.00080580344596177
0.33476437482354
-0.00083778605889819
0.33497231991246
-0.00086662049870281
0.3351881577462
-0.00089811331608771
0.33541025829093
-0.00092336464859383
0.33564057330214
-0.00095569578584666
0.33587561744446
-0.00097486882110346
-0.0010111522200589
0.33612003558991
0.31361037767594
-2.3009902181105e-05
0.31362336254087
-6.9077010113945e-05
0.31364499297955
-0.00011522300295697
0.31367523445554
-0.00016124162402435
0.31371406573455
-0.00020716892552998
0.31376148192409
-0.00025304680635488
0.31381748184773
-0.00029886881908673
0.31388205862493
-0.00034459931501129
0.31395519043063
-0.00039017192127902
0.31403684458535
-0.00043553784559454
0.31412698020688
-0.00048064923268455
0.3142255682761
-0.00052553119477011
0.3143325858132
-0.00057017328807024
0.31444803420707
-0.00061464308650969
0.31457190093694
-0.00065884557234023
0.31470419449997
-0.00070284612572861
0.31484486813324
-0.00074638276680869
0.31499392039307
-0.00078963914204945
0.3151512380763
-0.00083211145036984
0.31531683592754
-0.00087435050045659
0.31549049778037
-0.00091532901129596
0.3156723221372
-0.0009564240093023
0.31586189756183
-0.00099537884520134
0.31605954863767
-0.001035437109462
0.31626445240957
-0.0010715242456195
0.3164774836476
-0.0011111445291383
0.31669691992348
-0.0011428008996854
0.31692492490087
-0.0011837007387389
0.31715776499659
-0.0012077088933028
-0.0012539133850287
0.31740052618612
0.29600889847917
-2.7206486248786e-05
0.29602152595414
-8.1704447625442e-05
0.29604254982745
-0.00013624683864062
0.296071931083
-0.0001906228422885
0.29610964683701
-0.00024488464295416
0.29615569575478
-0.00029909568826698
0.29621008381942
-0.00035325684874966
0.29627281248951
-0.00040732795093608
0.29634386722817
-0.00046122662671288
0.29642322194975
-0.00051489253479019
0.2965108434236
-0.00056827067512768
0.2966067152146
-0.00062140295519814
0.29671083278367
-0.00067429082753598
0.29682322367444
-0.00072703394845312
0.29694390514025
-0.00077952701023081
0.29707292097306
-0.00083186193128931
0.29721025764138
-0.00088371940868008
0.2973559528601
-0.00093533433484526
0.29750992482997
-0.00098608339499039
0.29767223213234
-0.0010366577779544
0.29784268453532
-0.0010857813899179
0.29802143410313
-0.0011351735529899
0.29820808155118
-0.0011820262695057
0.2984030253352
-0.0012303808698077
0.29860542201941
-0.0012739209064181
0.29881626583948
-0.0013219883257471
0.29903374032893
-0.0013602753658214
0.29926023342338
-0.0014101938100978
0.29949175154903
-0.0014392269967535
-0.0014960040485314
0.29973384223594
0.27939529090563
-3.1262838836182e-05
0.27940751245657
-9.3925963349951e-05
0.27942785097796
-0.00015658532473174
0.27945626424683
-0.00021903607622111
0.27949272898554
-0.00028134934742046
0.27953724891831
-0.00034361558751721
0.27958983887311
-0.00040584677090552
0.27965051041
-0.0004679994559774
0.279719258077
-0.00052997426280573
0.27979606425215
-0.00059169867986477
0.27988090553484
-0.00065311192871513
0.27997378075534
-0.0007142781474261
0.28007470724042
-0.00077521728529821
0.28018374274109
-0.00083606942257354
0.28030093903799
-0.00089672328146925
0.28042638024241
-0.00095730311069414
0.28056009164657
-0.001017430788607
0.28070215559853
-0.0010773982630755
0.28085252795081
-0.0011364557241588
0.28101131677944
-0.0011954465838186
0.2811783648076
-0.0012528293957938
0.2813538831175
-0.0013106918407681
0.28153749257371
-0.0013656357039128
0.28172966998812
-0.0014225582624326
0.28192956092956
-0.001473811826263
0.2821382814539
-0.0015307088283711
0.28235393327912
-0.0015759271693963
0.28257912742426
-0.0016353879337203
0.28280962761846
-0.001669727170183
-0.0017378145815633
0.28305143817359
0.26371410063258
-3.5153990061263e-05
0.2637258403636
-0.00010566566097322
0.26374537272766
-0.00017611765534368
0.26377265300126
-0.00024631631672037
0.26380765832153
-0.00031635463525167
0.2638503986452
-0.00038635587940435
0.26390089910448
-0.00045634719923729
0.2639591829329
-0.00052628325418424
0.26402525543483
-0.00059604673542562
0.26409910924168
-0.00066555245819396
0.26418073293345
-0.00073473559290822
0.26427014315336
-0.0008036883405547
0.26436738233337
-0.00087245643944758
0.26447254206838
-0.00094122913246104
0.2645857130992
-0.0010098942880448
0.26470702433738
-0.0010786143252484
0.26483654538482
-0.0011469518131772
0.26497440818154
-0.0012152610374137
0.26512061289052
-0.0012826604113723
0.26527532213128
-0.0013501558031428
0.26543841988465
-0.0014159271281945
0.26561018060561
-0.0014824525409172
0.26579025620613
-0.0015457112839405
0.265979203863
-0.0016115058988224
0.26617617359801
-0.0016707815409752
0.26638239973486
-0.0017369349447974
0.2665959262633
-0.0017894536774884
0.26681957184111
-0.0018590334913122
0.26704889789369
-0.001899053203229
-0.0019792438302219
0.26729032716327
0.24891298904473
-3.885031539174e-05
0.24892415386581
-0.00011683045076318
0.24894273339084
-0.00019469714905275
0.24896868006086
-0.00027226295576636
0.24900197200134
-0.00034964654536618
0.24904262630223
-0.00042701015056228
0.24909067943326
-0.00050440030131657
0.24914616743513
-0.00058177122779369
0.24920910767486
-0.00065898694776983
0.24927950450641
-0.00073594926309559
0.24935736039607
-0.00081259145682879
0.24944271200104
-0.00088903992052122
0.24953562968473
-0.00096537409904311
0.2496362418654
-0.001041841289717
0.24974468209808
-0.0011183344981592
0.24986112776087
-0.0011950599660556
0.24998569786853
-0.0012715218995711
0.25011857812594
-0.0013481412740146
0.25025981980522
-0.0014239020704303
0.25040964424928
-0.0014999802272697
0.25056798600758
-0.0015742688669947
0.25073518590214
-0.0016496524161192
0.2509109403268
-0.0017214656895242
0.25109588606351
-0.0017964516164383
0.25128919850274
-0.0018640939612707
0.25149222040185
-0.0019399568248379
0.25170297318086
-0.0020002064374851
0.25192445356787
-0.0020805138593935
0.2521520838845
-0.002126683501556
-0.0022197961228135
0.25239263619684
0.23494255722591
-4.2319953549409e-05
0.23495304927249
-0.0001273224678031
0.23497051887296
-0.00021216671995127
0.23499491587711
-0.00029665993065971
0.23502621988201
-0.00038095052156798
0.23506445563234
-0.00046524587276285
0.23510967160865
-0.00054961625020729
0.23516191736547
-0.00063401695782943
0.23522122325023
-0.00071829280654453
0.235287606437
-0.00080233242456994
0.23536108476726
-0.00088606976264878
0.23544171646028
-0.00096967158979408
0.23552960191564
-0.0010532595314965
0.23562490840356
-0.0011371477553863
0.23572781526466
-0.0012212413378017
0.23583855089122
-0.0013057955717105
0.2359572880873
-0.0013902590754367
0.23608426937777
-0.0014751225447121
0.23621960369877
-0.0015592363722114
0.23636357411645
-0.001643950626014
0.23651617564953
-0.0017268703815699
0.23667781687179
-0.0018112936200043
0.23684825418611
-0.0018919029857567
0.23702820034152
-0.0019763977537662
0.23721688186747
-0.0020527754693018
0.2374157341895
-0.002138809128844
0.23762280174922
-0.0022072739792651
0.2378412169201
-0.0022989290124432
0.23806634773711
-0.0023518143013234
-0.0024586671190984
0.23830521875208
0.22175618101093
-4.5531148446078e-05
0.22176590611988
-0.00013704754902838
0.22178211115919
-0.00022837173150274
0.22180474435163
-0.00031929309561597
0.22183378730968
-0.00040999345265657
0.22186927262565
-0.00050073116227213
0.22191126085398
-0.00059160445272808
0.22195981522085
-0.0006825712994675
0.2220149795667
-0.00077345712790538
0.22207678452244
-0.00086413735644911
0.22214526414579
-0.00095454936293359
0.2222204989776
-0.0010449063991667
0.22230262060572
-0.0011353811379828
0.22239183592375
-0.001226363052379
0.22248837183402
-0.0013177772277742
0.22259250887248
-0.0014099325903854
0.2227044769359
-0.0015022271197262
0.22282457699164
-0.0015952225817191
0.22295298154166
-0.0016876409040355
0.22309003687528
-0.0017810059416981
0.22323580850417
-0.0018726419929181
0.22339077228525
-0.0019662573836718
0.22355476168397
-0.0020558923673412
0.22372855888102
-0.0021501949336711
0.22391147160318
-0.0022356881744744
0.22410500658882
-0.0023323440974027
0.22430728638292
-0.0024095537563672
0.22452152474426
-0.0025131673569098
0.22474314020856
-0.0025734297492936
-0.0026948142444307
0.22497928735166
0.20930985589449
-4.8455068388979e-05
0.20931872792836
-0.00014591955671479
0.20933352596954
-0.00024316974646375
0.20935419747787
-0.00033996457795156
0.20938072647128
-0.00043652242053827
0.20941315323546
-0.000533157901357
0.20945154997168
-0.00063000116444263
0.20949599300126
-0.00072701430505411
0.20954653921349
-0.00082400331682184
0.20960323242609
-0.00092083054630223
0.20966612318719
-0.0010174401020103
0.2097353143129
-0.0011140975034377
0.20981096859539
-0.0012110353997701
0.2098933319646
-0.0013087264014416
0.20998267921316
-0.0014071244568837
0.21007934249296
-0.0015065958512098
0.21018361071195
-0.0016064953203552
0.21029584319708
-0.0017074550488749
0.21041628086086
-0.0018080785503329
0.2105453329356
-0.0019100579992217
0.21068314505985
-0.0020104541003377
0.21083025783794
-0.0021133701450546
0.21098659979053
-0.0022122343034984
0.21115301303316
-0.0023166081598693
0.21132891993761
-0.002411595062669
0.21151587193413
-0.0025192960776001
0.2117121331179
-0.0026058149239137
0.21192093347117
-0.0027219676940966
0.21213786507234
-0.0027903613348999
-0.0029270154843972
0.21237006632928
0.19756204878759
-5.1067302838941e-05
0.19756999447216
-0.00015386521655974
0.19758326386369
-0.00025643911319556
0.19760180422153
-0.00035850491118733
0.19762560202467
-0.0004603201994806
0.19765470462382
-0.00056226047668837
0.19768919484222
-0.00066449135955555
0.19772916088228
-0.00076698032228319
0.19777467166064
-0.0008695140729659
0.1978257831642
-0.00097194202815236
0.19788256150053
-0.0010742184173095
0.19794513049038
-0.0011766664727845
0.19801368321627
-0.0012795881058322
0.19808850263417
-0.0013835458000232
0.19816991020886
-0.0014885320128952
0.19825828739177
-0.0015949730158986
0.19835398236708
-0.0017021902780027
0.19845741083079
-0.0018108834952874
0.19856888551278
-0.0019195532155037
0.19868887628553
-0.0020300487554025
0.19881761761905
-0.0021391954176452
0.19895571004367
-0.0022514625536026
0.19910319529097
-0.0023597195349879
0.1992609629484
-0.0024743758014944
0.19942858596864
-0.0025792180672736
0.19960762889331
-0.0026983389865703
0.19979656771051
-0.0027947537255255
0.1999985736296
-0.0029239735977373
0.20020955151481
-0.0030013392051579
-0.0031539197674755
0.20043645581424
0.18647355919467
-5.3349105566193e-05
0.18648052183904
-0.00016082783742354
0.18649216793773
-0.00026808518829213
0.18650844488973
-0.00037478183973473
0.1865293413639
-0.00048121665055467
0.1865549106855
-0.00058782977552535
0.18658524470952
-0.00069482536129415
0.18662044167314
-0.00080217726402464
0.1866605808092
-0.00090965318771185
0.18670572853818
-0.0010170897362961
0.18675596489543
-0.0011244547543319
0.18681143234522
-0.0012321339028358
0.1868723516627
-0.0013405074041984
0.18693903944036
-0.0014502335590459
0.18701186118834
-0.0015613537428286
0.1870912435197
-0.0016743553296426
0.18717759238109
-0.0017885391222996
0.18727137581936
-0.0019046669168198
0.18737298003182
-0.0020211574116827
0.18748293106156
-0.0021399997691123
0.18760155944872
-0.002257823789138
0.18772951838593
-0.002379421475278
0.18786698034359
-0.0024971814773703
0.18801486688411
-0.0026222623267706
0.18817293875756
-0.0027372899256353
0.18834273753654
-0.0028681377504115
0.18852302683328
-0.0029750430072231
0.18871683524391
-0.0031177819934658
0.18892053349042
-0.0032050374372135
-0.0033740912061865
0.18914070494497
0.17600738783583
-5.528816050944e-05
0.17601332978475
-0.00016676976389365
0.17602328905305
-0.00027804443402752
0.17603721325536
-0.00038870601959818
0.17605509269602
-0.0004990960690929
0.17607698521519
-0.00060972227288281
0.17610298964645
-0.00072082977118593
0.17613321188596
-0.00083239948254743
0.1761677391783
-0.00094418045961176
0.17620664599008
-0.0010559965280761
0.17625002386018
-0.0011678326050045
0.17629803065234
-0.0012801406760344
0.17635091121905
-0.0013933879525311
0.17640901071754
-0.0015083330396048
0.17647273428295
-0.0016250772908607
0.17654254812776
-0.0017441691574833
0.17661891257513
-0.0018649035531984
0.17670234204892
-0.0019880963744909
0.17679329582846
-0.0021121111755357
0.1768923494794
-0.0022390534046241
0.17699993492164
-0.0023654092163082
0.17711674829589
-0.002496234834614
0.17724310883014
-0.0026235419969514
0.17737995148966
-0.0027591049716739
0.17752726207433
-0.0028846004958091
0.17768651877592
-0.0030273944374668
0.17785685241823
-0.0031453766350631
0.17804105751599
-0.0033019870768517
0.17823613447688
-0.0034001143841132
-0.0035860489109046
0.17844809219701
0.16612861275663
-5.6878917133935e-05
0.16613351634235
-0.00017167332804465
0.16614175803918
-0.00028628610917044
0.16615328558893
-0.00040023354777502
0.16616809015222
-0.00051390061113344
0.16618623234426
-0.00062786444398513
0.16620781556732
-0.00074241297375891
0.16623295060848
-0.00085753450363297
0.16626172995269
-0.00097295978428745
0.16629423321583
-0.0010884997721447
0.1663305603429
-0.0012041597135799
0.16637088058904
-0.0013204609041365
0.16641545823128
-0.0014379655772928
0.16646466096021
-0.0015575357514911
0.16651892756826
-0.0016793438823918
0.16657875646917
-0.0018039980422655
0.1666446573347
-0.001930804403094
0.16671718331656
-0.0020606223410591
0.16679686410749
-0.0021917919516096
0.16688431613985
-0.0023265054224106
0.16698007552889
-0.0024611685911191
0.16708486948909
-0.0026010287807827
0.16719917784804
-0.0027378503421077
0.16732392748536
-0.002883854595258
0.16745936511365
-0.0030200381104692
0.16760686006584
-0.0031748893759655
0.16776599286432
-0.0033045094198425
0.16793922468622
-0.0034752188850909
0.16812436275594
-0.0035852524404058
-0.0037882998414129
0.16832661370137
0.15680427229226
-5.812250010672e-05
0.15680813968762
-0.00017554070254316
0.1568146656999
-0.00029281210048583
0.15682379794266
-0.00040936576974416
0.15683552751302
-0.00052563016108897
0.15684991589199
-0.00064225280292575
0.15686706842476
-0.00075956548703959
0.15688709783234
-0.00087756389221504
0.15691009880889
-0.00099596074245326
0.15693615295315
-0.0011145538985504
0.15696536500159
-0.0012333717447702
0.15699791104942
-0.0013530069352294
0.15703406920816
-0.0014741237198516
0.15707422288779
-0.0015976894153868
0.15711883727779
-0.0017239582571692
0.15716843476216
-0.0018535955118237
0.15722356698299
-0.0019859366095679
0.15728481725425
-0.0021218725983435
0.15735278043402
-0.0022597551178293
0.15742810393229
-0.0024018289074393
0.15751142728595
-0.0025444919319006
0.15760349552118
-0.002693097003365
0.1577049594019
-0.0028393142104119
0.1578167145311
-0.0029956097121155
0.15793930326526
-0.0031426268323556
0.15807393234296
-0.0033095184412811
0.15822071922247
-0.003451296286865
0.15838167002636
-0.0036361696763895
0.15855560545238
-0.003759187853852
-0.003979389281715
0.1587466949069
0.14800325481168
-5.9026362934499e-05
0.148006106859
-0.00017839272934665
0.14801094969782
-0.00029765491874132
0.14801773057913
-0.00041614663080911
0.1480264396494
-0.00053433921165577
0.14803713727564
-0.00065295041003043
0.14804992797424
-0.00077235616720975
0.14806492334317
-0.00089255924338887
0.1480822171402
-0.0010132545224877
0.14810188979444
-0.0011342265364791
0.14812404699962
-0.0012555289343376
0.14814886697894
-0.0013778268995258
0.14817663532477
-0.0015018920512631
0.14820774398872
-0.0016287980654052
0.14824267588824
-0.0017588901432783
0.14828196895606
-0.0018928885666569
0.1483262072869
-0.002030174927889
0.14837599573469
-0.0021716610340025
0.14843198533782
-0.0023157447092726
0.14849484590648
-0.0024646894647701
0.14856531362765
-0.00261495964211
0.14864413979469
-0.0027719231597288
0.14873214808167
-0.0029273224869554
0.14883018145827
-0.0030936430783708
0.14893910942887
-0.0032515547926488
0.14905991955446
-0.0034303285563924
0.14919336424475
-0.0035847409664315
0.14934082323156
-0.0037836286521595
0.14950239657512
-0.0039207611860818
-0.0041576792901917
0.1496806865968
0.13969619446535
-5.9603549203707e-05
0.13969806883654
-0.00018026707944768
0.13970128862735
-0.00030087468847028
0.13970580046757
-0.00042065845050189
0.13971159263652
-0.00054013136093006
0.13971872246262
-0.00066008021734131
0.13972729111727
-0.00078092480406903
0.13973740616356
-0.00090267427285848
0.1397491572304
-0.0010250055735151
0.13976262046599
-0.0011476897571402
0.13977789867691
-0.0012708071311896
0.13979516764166
-0.0013950958509248
0.13981471368231
-0.0015214380792408
0.13983693022033
-0.0016510145912938
0.13986230801524
-0.0017842679266111
0.13989139270093
-0.0019219732412278
0.1399247885211
-0.0020635707374235
0.13996311538133
-0.0022099878840236
0.14000706535416
-0.0023596946723681
0.14005732749416
-0.002514951595459
0.1401147166464
-0.0026723487854467
0.14017999128849
-0.0028371977932616
0.1402541269006
-0.0030014580907841
0.14033791319774
-0.0031774293673709
0.14043253950799
-0.0033461810947821
0.14053875266662
-0.0035365417066943
0.14065803290954
-0.0037040212006469
0.14079095909028
-0.0039165548236457
0.14093925955844
-0.0040690616443035
-0.0043219001292144
0.14110348040953
0.1318553725421
-5.9871340491339e-05
0.13185632061033
-0.00018121512399441
0.13185800097197
-0.00030255502628481
0.13186035918244
-0.00042301663798826
0.13186338025694
-0.00054315241370864
0.13186711659964
-0.00066381653967391
0.13187166400133
-0.000785472186803
0.1318771235184
-0.00090813377231057
0.13188357792124
-0.0010314599600487
0.131891096137
-0.0011552079577381
0.13189977437018
-0.0012794853502547
0.13190978127847
-0.001405102745944
0.13192139725806
-0.0015330540463276
0.13193501014727
-0.0016646274686322
0.13195110838349
-0.0018003661515442
0.13197023805089
-0.0019411028978492
0.13199300930661
-0.0020863419829017
0.13202005317331
-0.0022370317409794
0.13205208049725
-0.002391721987092
0.13208980548201
-0.0025526765715149
0.13213408371391
-0.0027166270091711
0.13218571198992
-0.0028888260615493
0.13224574830018
-0.003061494393717
0.1323150047707
-0.003246685830805
0.1323948506269
-0.0034260269439868
0.13248593335151
-0.0036276244241662
0.13259026539751
-0.0038083532390847
0.13270788058829
-0.0040341700061801
0.13284200061737
-0.0042031816641792
-0.0044708004850144
0.13299090098472
0.12445462437471
-5.9849349867038e-05
0.12445470686644
-0.00018129758579745
0.12445494924452
-0.00030279737373886
0.12445529542074
-0.00042336278453025
0.12445572522175
-0.00054358218670554
0.12445628462882
-0.00066437592056213
0.1244570616406
-0.00078624917426624
0.12445814786597
-0.00090921997509005
0.12445961802795
-0.0010329301010306
0.12446153248265
-0.0011571223928062
0.12446397800543
-0.0012819308546074
0.12446711049998
-0.0014082352230394
0.12447119804778
-0.0015371415775188
0.12447661456856
-0.001670043973516
0.124483837852
-0.0018075894197352
0.12449340565327
-0.0019506706844597
0.12450592254024
-0.0020988588558314
0.12452202471663
-0.0022531339039473
0.12454241968602
-0.0024121169437405
0.12456785401308
-0.0025781108865201
0.12459917212731
-0.002747945112069
0.12463726378966
-0.0029269177132651
0.12468314550344
-0.0031073760974889
0.12473784263283
-0.0033013829507028
0.12480259153086
-0.0034907758328629
0.12487838297101
-0.0037034158552558
0.12496697282858
-0.0038969430874126
0.12506881581981
-0.0041360129876302
0.12518761931964
-0.0043219851533597
-0.004604176398538
0.12532099524612
0.11746925394738
-5.9559483266287e-05
0.11746853557342
-0.0001805791707091
0.11746745415228
-0.0003017159100453
0.11746594861055
-0.00042185720112111
0.11746399072538
-0.00054162426175802
0.11746162108784
-0.00066200624542219
0.11745891841724
-0.00078354646824309
0.11745595887657
-0.0009062604009723
0.11745280772921
-0.0010297789220037
0.11744951732971
-0.0011538319631183
0.11744616480328
-0.001278578299271
0.11744288832143
-0.001404958713311
0.11743993836822
-0.0015341915973267
0.11743766418226
-0.001667769761361
0.11743652800601
-0.001806453218015
0.11743704539907
-0.0019511880527642
0.11743981373855
-0.0021016271713142
0.11744545574719
-0.0022587758894038
0.1174546746151
-0.0024213357893809
0.11746822834586
-0.0025916645960173
0.11748693289972
-0.0027666496457545
0.11751177851733
-0.0029517633118312
0.11754363868507
-0.0031392362472621
0.11758393911919
-0.0033416833678369
0.11763339350979
-0.0035402302073208
0.11769421315095
-0.0037642354809535
0.11776632830852
-0.0039690582299791
0.11785294395668
-0.0042226286209271
0.11795351187736
-0.0044225530590634
-0.0047239681957201
0.11807330369139
0.11087595884489
-5.9033381248408e-05
0.1108745163871
-0.00017913665671307
0.11087223656048
-0.00029943602520863
0.1108690514582
-0.00041867204147382
0.11086492544773
-0.00053749819594626
0.11085989027914
-0.00065697102381609
0.11085401719366
-0.00077767333203207
0.11084736605867
-0.00089960921727214
0.11083999389893
-0.0010224067152904
0.1108319425889
-0.0011457806075449
0.1108232763306
-0.0012699119966386
0.11081411126474
-0.0013957936041052
0.11080467648468
-0.001524756774834
0.11079528737794
-0.0016583806129866
0.11078638971364
-0.0017975555129063
0.11077846086597
-0.0019432591651303
0.11077210023572
-0.0020952665020534
0.11076788180514
-0.0022545574208844
0.11076653774042
-0.0024199916880171
0.11076875939139
-0.0025938862118176
0.11077542175737
-0.0027733119782494
0.11078745865922
-0.0029638001819813
0.11080575273226
-0.0031575302903996
0.11083189493946
-0.0033678255468397
0.11086613823962
-0.0035744734809298
0.11091223144839
-0.0038103286648606
0.11096747455127
-0.0040243013096021
0.11104141460323
-0.0042965686511583
0.11111968929313
-0.0045008277285339
-0.0048330093796672
0.11122873049804
0.1046527448612
-5.8312210733774e-05
0.10465068497995
-0.00017707670351266
0.10464734603122
-0.00029609700308752
0.10464265936733
-0.00041398530525158
0.10463660669035
-0.00053144544865128
0.10462919583599
-0.00064956010137163
0.10462046107707
-0.00076893850712504
0.10461046388341
-0.00088961195941473
0.10459927213802
-0.0010112149071797
0.1045869218638
-0.0011334302717924
0.10457346027858
-0.0012564503508662
0.10455897319931
-0.0013813064651684
0.10454365566412
-0.0015094391807825
0.10452777935626
-0.0016425042470793
0.10451177080615
-0.0017815469056253
0.10449606267482
-0.0019275509776219
0.10448126672196
-0.0020804704941777
0.10446787934816
-0.0022411699935218
0.10445670410451
-0.0024088163925732
0.10444825548428
-0.0025854375419698
0.10444364564452
-0.0027687020913953
0.10444339630661
-0.0029635507997274
0.10444901173261
-0.0031631456748301
0.10446112870039
-0.0033799424757416
0.10448127170845
-0.0035946164529344
0.10451144934756
-0.0038405062709139
0.10455084849665
-0.0040637004289442
0.10461063282289
-0.0043563529508959
0.10467314349953
-0.0045633383820667
-0.0049312795061546
0.10477141364845
0.098778806758415
-5.7400625454566e-05
0.098776248072899
-0.00017451793555527
0.098771972129755
-0.00029182097667339
0.098765954409298
-0.00040796750262307
0.098758204504106
-0.00052369546304377
0.098748768034376
-0.00064012355302054
0.098737510969064
-0.00075768136476175
0.098724546124469
-0.00087664703897653
0.098709941790421
-0.00099661049820285
0.098693736174832
-0.0011172245819338
0.09867597895381
-0.0012386930561318
0.09865673854282
-0.0013620659809549
0.098636162930283
-0.0014888634955804
0.098614467929823
-0.0016208091745681
0.098592040448446
-0.0017591193529956
0.098569269061695
-0.0019047795205952
0.098546759205748
-0.0020579605692891
0.098524939455639
-0.0022193501762325
0.098504667019586
-0.0023885438917308
0.098486267761211
-0.0025670382218552
0.098471128544688
-0.002753562816804
0.098459175769892
-0.0029515979708795
0.098452972505339
-0.0031569423603205
0.098451167219121
-0.0033781371436655
0.098458925658537
-0.0036023748507458
0.098471417890972
-0.0038529984665857
0.098498621389245
-0.0040909038956124
0.098529626786593
-0.0043873583216758
0.098580156108227
-0.0046138676815947
0.098701413376891
-0.005052536754862
0.3947481648724
0.0046389389332811
0.39026875331258
0.0044794115778885
0.38595338597826
0.0043153673519568
0.38180646833409
0.0041469176616592
0.37783226530095
0.0039742030505175
0.37403490192968
0.0037973633886979
0.37041835520653
0.0036165467405821
0.36698644457101
0.0034319106530988
0.36374282481179
0.0032436197768361
0.36069098148238
0.0030518433472203
0.35783422760739
0.0028567538928598
0.35517570063557
0.0026585269899262
0.35271835907504
0.0024573415787219
0.35046497848164
0.0022533806118407
0.34841814710498
0.0020468313952151
0.3465802613226
0.0018378858012192
0.34495352102594
0.0016267403156195
0.34353992504659
0.0014135959986261
0.34234126662013
0.0011986584458812
0.341359129058
0.00098213758189165
0.34059488085569
0.00076424822223006
0.3400496697378
0.00054521113817705
0.33972440901952
0.00032526073875897
0.3396197104169
0.00010469862348917
0.33973623275637
-0.00011652231840321
0.34007428349034
-0.00033805071249568
0.34063381359047
-0.00055953007846383
0.34141462470779
-0.00078081109524848
0.34241629541475
-0.0010016706847247
0.34363817226068
-0.0012218768233412
0.34507936854419