/*--------------------------------*- C++ -*----------------------------------*\
| =========                 |                                                 |
| \\      /  F ield         | OpenFOAM: The Open Source CFD Toolbox           |
|  \\    /   O peration     | Version:  2112                                  |
|   \\  /    A nd           | Website:  www.openfoam.com                      |
|    \\/     M anipulation  |                                                 |
\*---------------------------------------------------------------------------*/
FoamFile
{
    version     2.0;
    format      ascii;
    arch        "LSB;label=32;scalar=64";
    class       volVectorField;
    location    "18.2";
    object      U;
}
// * * * * * * * * * * * * * * * * * * * * * * * * * * * * * * * * * * * * * //

dimensions      [0 1 -1 0 0 0 0];

internalField   nonuniform List<vector> 
22000
(
(1.0000010436286 -2.6124056553367e-05 0)
(1.000027077928 -7.8276568347344e-05 0)
(1.0000770355487 -0.00013025877279045 0)
(1.0001520223914 -0.00018206132938752 0)
(1.0002524757236 -0.00023373281878025 0)
(1.0003783640756 -0.00028530141888557 0)
(1.000529464483 -0.00033674580493209 0)
(1.0007055561035 -0.00038802513511202 0)
(1.0009064783505 -0.00043907836381477 0)
(1.0011321225815 -0.00048986203167707 0)
(1.0013823684083 -0.00054032179457082 0)
(1.001657087732 -0.00059045816453111 0)
(1.0019561131796 -0.00064022454884073 0)
(1.002279297143 -0.00068964939723304 0)
(1.0026264288734 -0.00073860687485203 0)
(1.0029973334996 -0.00078713994314609 0)
(1.0033916989458 -0.00083497490561647 0)
(1.0038093043992 -0.00088228617484572 0)
(1.0042496817707 -0.00092856451757333 0)
(1.004712606537 -0.00097435419485882 0)
(1.0051973995092 -0.0010186199462217 0)
(1.0057039390478 -0.0010627387408589 0)
(1.0062312167577 -0.00110443701912 0)
(1.0067794038992 -0.0011469822095522 0)
(1.0073469056761 -0.0011852468248066 0)
(1.0079345592568 -0.0012268271100015 0)
(1.0085396698627 -0.001260053936132 0)
(1.0091644774103 -0.0013024231899895 0)
(1.0098041917567 -0.0013272844649612 0)
(1.0104639427815 -0.001374745123465 0)
(1.0000004845234 -7.6799699258713e-05 0)
(1.0000263978976 -0.00023031184370047 0)
(1.0000764337166 -0.00038349138185095 0)
(1.0001516319818 -0.00053623651312808 0)
(1.0002524791897 -0.00068865436879726 0)
(1.000379013769 -0.0008408188922792 0)
(1.0005310553564 -0.00099266688001355 0)
(1.0007084082425 -0.0011440753631312 0)
(1.0009109126589 -0.0012948575120131 0)
(1.0011384691976 -0.0014448764013963 0)
(1.0013909451036 -0.0015939694172587 0)
(1.0016682355179 -0.0017421417638006 0)
(1.0019701552459 -0.0018892690650619 0)
(1.0022966153125 -0.0020354433795076 0)
(1.0026473642125 -0.0021803060906747 0)
(1.0030223422789 -0.0023239771331592 0)
(1.0034211246988 -0.0024656595717856 0)
(1.0038437132823 -0.0026058423932879 0)
(1.0042893638537 -0.0027430520302677 0)
(1.0047583070608 -0.0028788383001476 0)
(1.0052492405236 -0.0030102270064475 0)
(1.0057630020152 -0.0031411480338394 0)
(1.006297218697 -0.0032650969764276 0)
(1.0068541052065 -0.0033913884702009 0)
(1.0074291192789 -0.0035054040116485 0)
(1.0080274687667 -0.0036287536521255 0)
(1.0086401346958 -0.0037282817680084 0)
(1.009278732004 -0.003853627543409 0)
(1.0099249860915 -0.0039293249296134 0)
(1.0106042283661 -0.0040688025598111 0)
(1.0000005104325 -0.00012515065786166 0)
(1.0000272251447 -0.00037552774880874 0)
(1.0000787215135 -0.00062555116804438 0)
(1.0001559456051 -0.00087496857089131 0)
(1.0002593207493 -0.0011239260742079 0)
(1.0003888792735 -0.0013725453372646 0)
(1.0005444570495 -0.0016207272817583 0)
(1.0007258877459 -0.0018682677615173 0)
(1.0009330181352 -0.0021148467796093 0)
(1.0011657665744 -0.0023602273605216 0)
(1.0014239818404 -0.0026041405087389 0)
(1.0017075914094 -0.0028466153969097 0)
(1.0020163811795 -0.003087475831882 0)
(1.0023503507517 -0.0033269110791272 0)
(1.0027091882022 -0.0035643483108915 0)
(1.0030930147463 -0.003800008213774 0)
(1.0035012348743 -0.0040325659321529 0)
(1.0039342043503 -0.0042628488015946 0)
(1.004390747719 -0.004488392320588 0)
(1.0048718281362 -0.0047118006086792 0)
(1.0053751418816 -0.0049280952159467 0)
(1.0059030962682 -0.0051438675382279 0)
(1.0064510673417 -0.0053482240664477 0)
(1.0070246857834 -0.0055567727436513 0)
(1.0076144055241 -0.0057450321894729 0)
(1.0082329334252 -0.005949195825183 0)
(1.0088601726067 -0.0061137577903113 0)
(1.009524319116 -0.0063218222986827 0)
(1.0101826659696 -0.0064470993659524 0)
(1.010897607358 -0.0066794043689845 0)
(1.0000005246021 -0.00017208296626091 0)
(1.0000280560619 -0.00051646405179185 0)
(1.0000811398883 -0.00086041528005406 0)
(1.0001607090945 -0.0012035239446917 0)
(1.0002671514824 -0.0015460115864487 0)
(1.0004004841526 -0.0018880854907801 0)
(1.0005605407954 -0.0022296322584701 0)
(1.0007471788282 -0.0025703725832366 0)
(1.0009602488908 -0.0029098463443545 0)
(1.0011996952622 -0.0032477132443261 0)
(1.001465343593 -0.0035836052427019 0)
(1.0017571684207 -0.0039176079102872 0)
(1.0020749172962 -0.0042495299499748 0)
(1.0024187153128 -0.0045797087531927 0)
(1.0027881694045 -0.0049073799959646 0)
(1.0031836564081 -0.0052329052957075 0)
(1.0036043477103 -0.0055544174330768 0)
(1.0040510968988 -0.0058731283256558 0)
(1.0045221334384 -0.0061855263085885 0)
(1.0050194457614 -0.0064953635843187 0)
(1.0055393413279 -0.0067955250032476 0)
(1.0060864200039 -0.0070954687288256 0)
(1.00665292876 -0.0073796062671854 0)
(1.0072492631119 -0.0076702940841069 0)
(1.0078589165525 -0.0079324940378933 0)
(1.008505055751 -0.0082180068224491 0)
(1.0091521732467 -0.0084474136317998 0)
(1.0098516031965 -0.0087395941138674 0)
(1.0105266508087 -0.0089139109918065 0)
(1.0112914234737 -0.0092417874034445 0)
(1.0000005389727 -0.00021771034943559 0)
(1.0000289324094 -0.00065354943118286 0)
(1.0000837067731 -0.001088869454279 0)
(1.0001657920333 -0.0015230399301615 0)
(1.000275548955 -0.0019563898555242 0)
(1.0004129858038 -0.0023892639775579 0)
(1.0005779356779 -0.0028215683507338 0)
(1.0007702845462 -0.0032529590326668 0)
(1.0009898877953 -0.0036828262936265 0)
(1.0012367242159 -0.0041107204646042 0)
(1.0015105941942 -0.004536182846064 0)
(1.0018115357074 -0.0049593975449227 0)
(1.0021392541519 -0.0053802068566688 0)
(1.0024940384648 -0.0057991627237593 0)
(1.0028754027575 -0.0062153380847959 0)
(1.003284052596 -0.0066292847349716 0)
(1.0037188788023 -0.0070385712004258 0)
(1.0041813670601 -0.0074448496550087 0)
(1.0046690157248 -0.007843485676811 0)
(1.00518510373 -0.0082394974371977 0)
(1.0057242194052 -0.0086234599830179 0)
(1.0062937080492 -0.0090079609834089 0)
(1.0068819319282 -0.0093723204936817 0)
(1.0075052366068 -0.0097462307398714 0)
(1.0081384624533 -0.010083200409438 0)
(1.0088178185695 -0.010451965361015 0)
(1.0094886210566 -0.010747181414506 0)
(1.0102310341967 -0.011126509908694 0)
(1.0109260275003 -0.011350440770961 0)
(1.0117521365792 -0.011778798731878 0)
(1.000000552314 -0.00026203389259209 0)
(1.0000297813326 -0.00078681316182636 0)
(1.0000862039593 -0.0013109984807863 0)
(1.0001707418057 -0.0018336759149644 0)
(1.0002837259957 -0.0023553122284305 0)
(1.0004251613291 -0.0028764433974793 0)
(1.0005948875386 -0.0033970309036174 0)
(1.0007928299615 -0.0039166771949031 0)
(1.0010188543761 -0.0044346115631643 0)
(1.0012729847101 -0.0049502674415889 0)
(1.0015549975103 -0.0054631050397848 0)
(1.0018650120213 -0.005973455367084 0)
(1.0022026934645 -0.0064812510825267 0)
(1.0025685328512 -0.0069873349109533 0)
(1.0029619485288 -0.0074906511247462 0)
(1.0033840432705 -0.0079919970388963 0)
(1.0038333956205 -0.0084883534755395 0)
(1.0043122436922 -0.0089818740284419 0)
(1.0048172503059 -0.0094667189274938 0)
(1.0053532146768 -0.0099493019319335 0)
(1.0059127410747 -0.010417699162645 0)
(1.0065063887913 -0.010887916953782 0)
(1.0071180180528 -0.011333748954834 0)
(1.0077709156538 -0.011792870197583 0)
(1.0084298734645 -0.012206349631625 0)
(1.0091462905824 -0.012661324298775 0)
(1.0098431873361 -0.013024300027148 0)
(1.0106342954753 -0.013495046194475 0)
(1.0113513197668 -0.013770147627119 0)
(1.01224787349 -0.014305365924356 0)
(1.0000005621486 -0.00030494387430521 0)
(1.0000305071586 -0.0009159396222949 0)
(1.0000883574097 -0.0015262917484329 0)
(1.0001750189367 -0.0021347341019356 0)
(1.0002907906775 -0.0027419041290573 0)
(1.0004356800205 -0.0033485860106953 0)
(1.000609542593 -0.0039548347447531 0)
(1.0008123553538 -0.004560210980907 0)
(1.0010440022647 -0.0051637715421982 0)
(1.0013045637292 -0.0057648258682573 0)
(1.0015937969142 -0.0063627656425336 0)
(1.0019119204129 -0.0069581231685823 0)
(1.002258566338 -0.0075509865746895 0)
(1.0026344644632 -0.0081425737188532 0)
(1.0030389434399 -0.0087317414615973 0)
(1.0034735658177 -0.0093195923379105 0)
(1.0039365834733 -0.0099024999230906 0)
(1.004431091111 -0.010483181601907 0)
(1.0049528464904 -0.011054513153679 0)
(1.0055083590547 -0.011624433255227 0)
(1.0060880563676 -0.012178334804072 0)
(1.0067060870591 -0.012735929074342 0)
(1.0073413453223 -0.013265054818446 0)
(1.0080248390057 -0.013812009362393 0)
(1.0087102460018 -0.01430444305965 0)
(1.0094658356666 -0.014849347570166 0)
(1.0101899252367 -0.015282859111258 0)
(1.0110335303164 -0.01585017105238 0)
(1.0117736997226 -0.016178913171095 0)
(1.0127475599352 -0.016828349977764 0)
(1.0000005667179 -0.00034623258721031 0)
(1.0000310168554 -0.0010403153941799 0)
(1.000089898315 -0.001733737628207 0)
(1.0001780962273 -0.0024248106527563 0)
(1.0002958772817 -0.0031143780739364 0)
(1.0004432583471 -0.0038035326261642 0)
(1.0006201200882 -0.0044924639526122 0)
(1.0008265026751 -0.0051807045967953 0)
(1.0010623171009 -0.0058671287699422 0)
(1.0013277117781 -0.0065509161356381 0)
(1.0016224318516 -0.0072314060807149 0)
(1.0019468130209 -0.0079093914092279 0)
(1.0023004662851 -0.0085851883814743 0)
(1.0026843942637 -0.0092604797724654 0)
(1.0030978510758 -0.0099340841076306 0)
(1.0035429141648 -0.010607470641413 0)
(1.0040175126928 -0.011276394373468 0)
(1.0045256835498 -0.011944195707536 0)
(1.0050622476373 -0.012602399641686 0)
(1.0056355703958 -0.013260587937897 0)
(1.0062337889914 -0.013901309650145 0)
(1.0068749152626 -0.014548239115171 0)
(1.0075325802018 -0.015162878053066 0)
(1.008246065897 -0.01580072197289 0)
(1.0089572255884 -0.016375117595475 0)
(1.0097523794862 -0.01701423008586 0)
(1.0105034923645 -0.017521796689861 0)
(1.0114014943846 -0.018191478674216 0)
(1.0121650045129 -0.018577278692988 0)
(1.0132207658209 -0.019348999198925 0)
(1.0000005641238 -0.00038562554858466 0)
(1.000031226421 -0.0011591250746746 0)
(1.0000905822082 -0.0019319867778325 0)
(1.0001794934644 -0.0027020282407153 0)
(1.0002981975746 -0.003470336217165 0)
(1.0004467269857 -0.0042383750985581 0)
(1.0006249951666 -0.0050065131290582 0)
(1.0008331157399 -0.0057742700566492 0)
(1.0010710364584 -0.0065403290596592 0)
(1.0013389847254 -0.0073037357744647 0)
(1.0016367031798 -0.008063797518218 0)
(1.0019646609185 -0.0088216302886173 0)
(1.0023224643293 -0.009577858051783 0)
(1.0027114191174 -0.010334721221315 0)
(1.0031307289202 -0.011091057781057 0)
(1.0035830317432 -0.011848764481204 0)
(1.0040659567015 -0.012602979109298 0)
(1.0045845471136 -0.013357716780043 0)
(1.0051326950089 -0.014103107933187 0)
(1.0057207192163 -0.014850473629812 0)
(1.006334436477 -0.015579402083579 0)
(1.0069958869776 -0.016317735321456 0)
(1.0076733181857 -0.01702034424035 0)
(1.0084145981629 -0.017752378011511 0)
(1.009149419664 -0.018412177436641 0)
(1.0099828085003 -0.019150140711379 0)
(1.0107595205942 -0.019735955611577 0)
(1.0117118982674 -0.020514251672866 0)
(1.0124980410432 -0.020961509166634 0)
(1.0136380013496 -0.021863989146442 0)
(1.0000005534821 -0.00042281352228034 0)
(1.0000310652764 -0.0012714466248754 0)
(1.0000902047823 -0.0021195075849497 0)
(1.0001788087014 -0.002964250019932 0)
(1.0002970848284 -0.0038070424880613 0)
(1.0004450848777 -0.0046497855002493 0)
(1.0006227632694 -0.005493071341951 0)
(1.0008303175497 -0.0063364233060773 0)
(1.0010677428301 -0.0071783274289562 0)
(1.0013353550949 -0.0080176929803716 0)
(1.0016329053439 -0.008853819685983 0)
(1.0019610096658 -0.0096882114126976 0)
(1.0023192897233 -0.010521885459144 0)
(1.0027093789637 -0.011357732943938 0)
(1.0031304624998 -0.012194678644371 0)
(1.0035857730996 -0.013035104451991 0)
(1.0040726806206 -0.013873549373391 0)
(1.0045972749931 -0.014714743187701 0)
(1.0051525675267 -0.015547409980654 0)
(1.0057508757953 -0.016384674160588 0)
(1.0063757524203 -0.01720310894469 0)
(1.0070533166754 -0.01803485132861 0)
(1.0077464947324 -0.018827975875213 0)
(1.008511803301 -0.019657566869562 0)
(1.0092668235635 -0.02040652358244 0)
(1.0101354021795 -0.021248159572089 0)
(1.010935042489 -0.021917017772512 0)
(1.0119398433873 -0.022810399437211 0)
(1.0127470091751 -0.023324515276745 0)
(1.0139711592289 -0.024366352959921 0)
(1.0000005332606 -0.00045747667872592 0)
(1.0000304770497 -0.0013763211281157 0)
(1.0000886068769 -0.0022947043671103 0)
(1.0001757235832 -0.0032092499256711 0)
(1.0002920026933 -0.0041216468013006 0)
(1.0004375190615 -0.0050342943067175 0)
(1.0006122768105 -0.0059480535410204 0)
(1.0008165664373 -0.0068624677171409 0)
(1.0010504405778 -0.007775822007089 0)
(1.0013143111703 -0.0086868888425316 0)
(1.0016079491359 -0.0095949891014847 0)
(1.0019321273905 -0.010502079484745 0)
(1.0022865049863 -0.011409661150937 0)
(1.0026730603621 -0.012321366580753 0)
(1.0030909982181 -0.01323628467577 0)
(1.0035441665715 -0.014157334523247 0)
(1.0040297334051 -0.015078495801381 0)
(1.0045548491961 -0.016005237276092 0)
(1.0051117315735 -0.016924905623248 0)
(1.0057146879963 -0.017852451081756 0)
(1.0063451484068 -0.018761458430779 0)
(1.0070332461763 -0.01968838765844 0)
(1.0077368301261 -0.020574517057825 0)
(1.0085208782783 -0.021504924175026 0)
(1.0092912928997 -0.022346975835451 0)
(1.0101903222682 -0.023297097990537 0)
(1.0110089775189 -0.024054312628195 0)
(1.0120623216868 -0.025069265810392 0)
(1.0128879795769 -0.025656645243107 0)
(1.0141940049053 -0.026846283982873 0)
(1.0000005031271 -0.00048930725389128 0)
(1.000029421597 -0.0014728229182836 0)
(1.0000856688784 -0.002456036868532 0)
(1.0001699972427 -0.0034348809224136 0)
(1.0002825464742 -0.0044114002052615 0)
(1.0004234177827 -0.0053885510560709 0)
(1.0005926729501 -0.0063675061230615 0)
(1.0007907017795 -0.0073478441980429 0)
(1.0010176222989 -0.008327648070227 0)
(1.0012739454159 -0.0093055540058304 0)
(1.0015594727881 -0.010280936135016 0)
(1.0018751394978 -0.011256267277924 0)
(1.0022206651315 -0.012233626756869 0)
(1.00259838156 -0.013217474062483 0)
(1.0030075553459 -0.014207149664198 0)
(1.0034526547572 -0.015206153867755 0)
(1.0039307171661 -0.016207970617644 0)
(1.0044499397993 -0.017218812745308 0)
(1.0050018693029 -0.018224726765877 0)
(1.0056027395341 -0.019242461406946 0)
(1.0062320798709 -0.0202427361468 0)
(1.0069238590772 -0.021266243455177 0)
(1.0076312661769 -0.022247664591481 0)
(1.0084273133044 -0.023281861489132 0)
(1.0092070222723 -0.024220993589016 0)
(1.0101301127909 -0.025284213488942 0)
(1.0109626324235 -0.026135515949109 0)
(1.0120587354694 -0.027278322199891 0)
(1.0128993907995 -0.027946356197845 0)
(1.0142826940064 -0.029291807509334 0)
(1.0000004626023 -0.00051803286030684 0)
(1.0000278743771 -0.0015601295678357 0)
(1.0000813178351 -0.0026021331807339 0)
(1.000161481977 -0.0036392271235822 0)
(1.0002684667385 -0.004673844267478 0)
(1.0004024012102 -0.0057095502461249 0)
(1.0005634108453 -0.0067478688178957 0)
(1.0007519876434 -0.0077884287179428 0)
(1.0009683205271 -0.0088291109922173 0)
(1.0012130181623 -0.0098684170435266 0)
(1.0014859214637 -0.010905808729005 0)
(1.0017881260803 -0.011944334102621 0)
(1.0021194342994 -0.012986746586786 0)
(1.0024825301383 -0.014038410639879 0)
(1.0028767862247 -0.015099015553395 0)
(1.0033072794113 -0.016172676540999 0)
(1.0037709981493 -0.017252471751177 0)
(1.004277144212 -0.018345340687964 0)
(1.0048167463463 -0.019436161163976 0)
(1.0054078483147 -0.020543396287202 0)
(1.0060283728871 -0.021635133108147 0)
(1.0067158388673 -0.022756071447102 0)
(1.0074193505315 -0.023834722676204 0)
(1.0082193045152 -0.024975220168233 0)
(1.0090009754968 -0.026015319175842 0)
(1.0099401582504 -0.027195846284038 0)
(1.0107801646494 -0.028147266558548 0)
(1.0119113844621 -0.029423774952857 0)
(1.0127625224069 -0.03018079290835 0)
(1.0142162690922 -0.031689353130024 0)
(1.0000004119509 -0.00054343221845303 0)
(1.0000258282738 -0.0016375684912242 0)
(1.0000755297786 -0.0027318672242166 0)
(1.0001501268835 -0.0038207125002313 0)
(1.0002496745108 -0.0049069514889183 0)
(1.0003743290736 -0.0059948037835568 0)
(1.0005242831276 -0.0070861792716059 0)
(1.0007001296701 -0.0081807686991798 0)
(1.0009021306702 -0.0092762536917533 0)
(1.0011309863238 -0.010371002265082 0)
(1.0013865827365 -0.011464600149657 0)
(1.0016701678319 -0.012560723640917 0)
(1.0019816453108 -0.013662895608958 0)
(1.0023240382126 -0.014777452609391 0)
(1.0026968687148 -0.015904538535464 0)
(1.0031057934829 -0.017048904881679 0)
(1.0035478400699 -0.018203341295178 0)
(1.0040331446866 -0.019375471518716 0)
(1.0045523947767 -0.02054919416236 0)
(1.0051252777735 -0.021744540531518 0)
(1.0057284637937 -0.022927317456899 0)
(1.0064026398408 -0.024145860035538 0)
(1.0070935350823 -0.025323187271739 0)
(1.0078880861655 -0.026571857500078 0)
(1.0086632417059 -0.027716554461836 0)
(1.0096090691669 -0.029017989485522 0)
(1.0104489806796 -0.030075714069045 0)
(1.0116058938027 -0.031491102228066 0)
(1.0124619157656 -0.032346290878062 0)
(1.0139771083765 -0.034024247596637 0)
(1.0000003514372 -0.00056534572116177 0)
(1.0000232930326 -0.0017046489976582 0)
(1.0000683300006 -0.0028444127936286 0)
(1.0001359774557 -0.0039781771038219 0)
(1.0002262394945 -0.0051092238524912 0)
(1.0003392972202 -0.0062424623034188 0)
(1.000475410833 -0.007380217738238 0)
(1.0006352687633 -0.0085222519210383 0)
(1.0008192042926 -0.0096660504847864 0)
(1.0010279976313 -0.010809848911206 0)
(1.0012615823567 -0.011953393280866 0)
(1.0015213432028 -0.013101033403818 0)
(1.0018073000437 -0.014257154529287 0)
(1.0021227899447 -0.015429119337927 0)
(1.0024675235093 -0.016617638489285 0)
(1.0028476908068 -0.017828106580069 0)
(1.0032604485499 -0.019053168970348 0)
(1.0037167707378 -0.020301064370956 0)
(1.004207195687 -0.021554960988294 0)
(1.0047528435444 -0.022836246740712 0)
(1.0053295308585 -0.024108925061241 0)
(1.0059806484208 -0.025424439377099 0)
(1.006649366313 -0.026701259332769 0)
(1.0074281531493 -0.028059167240312 0)
(1.0081872849286 -0.029311675714208 0)
(1.0091289675411 -0.030736801372866 0)
(1.0099600404602 -0.031907010766704 0)
(1.0111315489063 -0.033465536068786 0)
(1.0119857142719 -0.034428824718655 0)
(1.0135512903452 -0.036281152895395 0)
(1.0000002819936 -0.00058368121102956 0)
(1.0000202939871 -0.0017610802688818 0)
(1.0000597876576 -0.0029392740581925 0)
(1.0001191660308 -0.0041109202432179 0)
(1.0001983757492 -0.0052797491121393 0)
(1.000297617927 -0.0064513854060936 0)
(1.0004172178601 -0.0076285924647136 0)
(1.000557949385 -0.0088112084856648 0)
(1.0007202112096 -0.0099965269503165 0)
(1.0009048468215 -0.011182650435066 0)
(1.0011118352907 -0.012369520564479 0)
(1.0013426755264 -0.013562196537924 0)
(1.0015975127454 -0.014766013753566 0)
(1.0018799617861 -0.015989400789493 0)
(1.0021899544952 -0.017233751137071 0)
(1.0025341504011 -0.018505093901874 0)
(1.0029099220636 -0.019796098146914 0)
(1.0033289605085 -0.021115521319914 0)
(1.0037818542218 -0.022446106887214 0)
(1.004290906264 -0.023810322033706 0)
(1.0048315079267 -0.025170967456535 0)
(1.0054492215595 -0.026581910803287 0)
(1.0060855499411 -0.027958286939156 0)
(1.0068373586908 -0.029425535456915 0)
(1.0075700741293 -0.030788491215389 0)
(1.0084956500689 -0.032339064511552 0)
(1.0093080489366 -0.033627753962055 0)
(1.0104815183874 -0.035332493879403 0)
(1.011325900578 -0.036414404704476 0)
(1.0129288675344 -0.038444480185151 0)
(1.0000002044929 -0.00059841550415702 0)
(1.0000168698246 -0.0018067763954821 0)
(1.0000500110663 -0.0030162942495316 0)
(1.0000999018422 -0.004218713012484 0)
(1.0001664244172 -0.0054182178477254 0)
(1.0002497933774 -0.006621164491537 0)
(1.0003503934546 -0.0078307695317635 0)
(1.0004690699739 -0.0090469490801044 0)
(1.0006062771394 -0.010266807932548 0)
(1.0007629005452 -0.011488314190436 0)
(1.0009389583033 -0.012711637336855 0)
(1.0011360343517 -0.013942571889339 0)
(1.0013544014049 -0.015187482426253 0)
(1.0015979049689 -0.016455888416707 0)
(1.0018667222716 -0.017749981453334 0)
(1.0021679035543 -0.019076403100682 0)
(1.0024991162414 -0.020428031493279 0)
(1.0028726258995 -0.02181402331607 0)
(1.0032792696381 -0.0232170508278 0)
(1.0037422515118 -0.024660324163136 0)
(1.004236979259 -0.026106154230179 0)
(1.0048106004558 -0.027609999481342 0)
(1.0054038896379 -0.0290851372393 0)
(1.006116876051 -0.030660734298673 0)
(1.0068120813686 -0.032136046519238 0)
(1.0077086221858 -0.03381260099813 0)
(1.0084915352027 -0.035225401063843 0)
(1.0096529533688 -0.03707795397238 0)
(1.010478399716 -0.038289430170105 0)
(1.0121039293722 -0.040498575610929 0)
(1.0000001203597 -0.00060959205603686 0)
(1.0000130706388 -0.0018418503365831 0)
(1.0000391399862 -0.0030756466519021 0)
(1.0000784556556 -0.0043017861647996 0)
(1.0001308287136 -0.0055249081370847 0)
(1.0001964796244 -0.0067521048841674 0)
(1.0002758437582 -0.0079870541904751 0)
(1.0003698202262 -0.0092297480108529 0)
(1.0004789045544 -0.010477104231373 0)
(1.0006039999743 -0.011726953480667 0)
(1.0007451529148 -0.012979719962774 0)
(1.000903998914 -0.014241950497411 0)
(1.0010809323664 -0.015521105025777 0)
(1.0012799736187 -0.016827807229926 0)
(1.001501557281 -0.01816515301922 0)
(1.0017530334547 -0.019540367700278 0)
(1.0020324309923 -0.020946726943286 0)
(1.0023524314229 -0.02239365841077 0)
(1.0027043089 -0.023864139885271 0)
(1.0031118622776 -0.025381755152086 0)
(1.0035509588956 -0.026909113799905 0)
(1.0040696994586 -0.028502320316882 0)
(1.0046090996821 -0.030074487446685 0)
(1.0052710237058 -0.031756248317325 0)
(1.0059171496231 -0.033344979889633 0)
(1.0067709713524 -0.035146617686175 0)
(1.0075128410972 -0.036688745924324 0)
(1.0086470229248 -0.038688790615548 0)
(1.0094431863232 -0.040041275789959 0)
(1.0110749440203 -0.04242787380853 0)
(1.0000000310608 -0.0006173152428998 0)
(1.0000089541874 -0.0018665978850302 0)
(1.0000273383115 -0.0031178088277995 0)
(1.0000551463309 -0.0043607972959488 0)
(1.0000921108063 -0.0056006473136863 0)
(1.0001384496729 -0.0068451822436158 0)
(1.0001946378902 -0.0080985413323448 0)
(1.0002616090493 -0.0093607881415679 0)
(1.0003398820819 -0.010628654221904 0)
(1.000430351075 -0.011899829140731 0)
(1.0005330746223 -0.013175009537803 0)
(1.0006497043164 -0.01446150328629 0)
(1.0007807408055 -0.015767913070283 0)
(1.0009303197525 -0.017105975207855 0)
(1.0010991289588 -0.018479774998478 0)
(1.0012947229815 -0.019897102336284 0)
(1.0015155365278 -0.02135179392176 0)
(1.0017745037859 -0.022853447232621 0)
(1.0020635002738 -0.024385688830697 0)
(1.0024066020306 -0.025972145953008 0)
(1.002780566484 -0.027576488984237 0)
(1.0032337760876 -0.029254540777801 0)
(1.0037085034911 -0.030920999349349 0)
(1.0043069379727 -0.032705536466814 0)
(1.0048922904939 -0.034407778018665 0)
(1.0056889068466 -0.036332033089715 0)
(1.0063781855648 -0.0380081403817 0)
(1.0074678540916 -0.040153341000817 0)
(1.0082266275826 -0.041658922391933 0)
(1.0098389873578 -0.044217038336815 0)
(0.99999993894889 -0.00062173708754526 0)
(1.0000045785231 -0.0018814662567232 0)
(1.0000147767159 -0.0031435166118382 0)
(1.0000303135345 -0.0043967705185304 0)
(1.0000508354911 -0.0056467386492301 0)
(1.0000765464449 -0.0069019597094596 0)
(1.0001079464632 -0.0081670281292455 0)
(1.0001459834597 -0.0094420712991367 0)
(1.0001911812877 -0.010723635148112 0)
(1.000244399354 -0.012009265668374 0)
(1.0003056880807 -0.013299937601279 0)
(1.0003766771711 -0.014603716893163 0)
(1.0004579451206 -0.015930370945522 0)
(1.0005536831665 -0.017292757782666 0)
(1.0006648076232 -0.018696004771309 0)
(1.0007989890218 -0.020148478576193 0)
(1.0009550774236 -0.021644677423806 0)
(1.0011461136225 -0.023194353176561 0)
(1.0013646853447 -0.024781988517177 0)
(1.0016348516879 -0.026431113823556 0)
(1.0019346346452 -0.028106956747267 0)
(1.0023120163509 -0.029864505771452 0)
(1.0027116110938 -0.031621325940897 0)
(1.003234119482 -0.033504326498929 0)
(1.0037473890431 -0.035318802855666 0)
(1.0044712911898 -0.0373619753143 0)
(1.0050974675815 -0.039175682450128 0)
(1.0061218041034 -0.041460913234824 0)
(1.0068375431733 -0.043133451294626 0)
(1.0084027933624 -0.045852610490157 0)
(0.999999841469 -0.00062305101101916 0)
(0.99999999953639 -0.0018869945333165 0)
(1.0000016085055 -0.0031536768953957 0)
(1.0000042744318 -0.0044109932468801 0)
(1.0000075532796 -0.0056648468772892 0)
(1.000011613973 -0.0069244647302597 0)
(1.0000169616049 -0.0081948838300005 0)
(1.0000245316619 -0.0094762761017372 0)
(1.0000348332235 -0.010765004409469 0)
(1.0000486721495 -0.012058476558609 0)
(1.0000660824569 -0.013357951969276 0)
(1.0000886287981 -0.014672236195993 0)
(1.0001169276807 -0.016012255927493 0)
(1.0001551512853 -0.017391984283306 0)
(1.0002044067493 -0.01881761116522 0)
(1.0002723931547 -0.020298120614961 0)
(1.0003583591091 -0.021828697571392 0)
(1.0004753325461 -0.023419351989479 0)
(1.0006166486531 -0.025055402610276 0)
(1.0008061356634 -0.026760498194421 0)
(1.0010232739732 -0.028501318097816 0)
(1.0013151699668 -0.030332399714847 0)
(1.0016294761518 -0.032174025829194 0)
(1.0020642088915 -0.034150753849478 0)
(1.0024938875655 -0.036073841758431 0)
(1.0031307167479 -0.03823248181911 0)
(1.0036813974499 -0.040183710164408 0)
(1.0046225911061 -0.042604719574697 0)
(1.0052827220402 -0.044452009101676 0)
(1.006781837728 -0.047322237960418 0)
(0.9999997419013 -0.00062148315954031 0)
(0.99999525432172 -0.0018838557400971 0)
(0.99998797078168 -0.0031493400071073 0)
(0.99997732377006 -0.0044048761756471 0)
(0.99996277967728 -0.0056567458471266 0)
(0.99994444556187 -0.0069148398041125 0)
(0.9999228241772 -0.0081846262457148 0)
(0.99989880657194 -0.0094663011646081 0)
(0.99987285156862 -0.010756039507263 0)
(0.99984567631862 -0.01205108244737 0)
(0.99981732039914 -0.013352971515084 0)
(0.99978923620309 -0.014671222903139 0)
(0.99976206885346 -0.016017933353891 0)
(0.99973984111752 -0.017408150380414 0)
(0.99972385129663 -0.01884915842714 0)
(0.99972165591258 -0.020350553997281 0)
(0.99973297114359 -0.021908235422496 0)
(0.99977058336728 -0.023532567343848 0)
(0.99982871393372 -0.025209570263527 0)
(0.99993064256685 -0.026963459180538 0)
(1.0000575069086 -0.028761667204959 0)
(1.0002551424779 -0.030659764150578 0)
(1.0004744733904 -0.032578465781788 0)
(1.0008105043196 -0.034644118791933 0)
(1.0011447292183 -0.036667989047697 0)
(1.0016817463923 -0.038940833152768 0)
(1.0021437458289 -0.041022215528504 0)
(1.0029870265358 -0.043580695891442 0)
(1.003576404211 -0.045597040173164 0)
(1.0049909014074 -0.048610545268568 0)
(0.99999963717491 -0.0006173628489752 0)
(0.99999047697298 -0.0018729687437575 0)
(0.99997416002306 -0.0031319249443106 0)
(0.99994994473039 -0.0043802355544446 0)
(0.99991720826726 -0.0056245769915136 0)
(0.99987597200751 -0.0068755048650033 0)
(0.99982673618237 -0.0081388480851738 0)
(0.99977033062806 -0.0094148774147729 0)
(0.99970717747372 -0.010699702977338 0)
(0.99963786627393 -0.011990359286701 0)
(0.99956244822161 -0.013288579902818 0)
(0.99948214631511 -0.014604459072651 0)
(0.99939768929427 -0.015951277768779 0)
(0.99931273678468 -0.017345079579476 0)
(0.9992289355587 -0.018794399660969 0)
(0.99915330474214 -0.020309332263857 0)
(0.99908644571156 -0.021886736655723 0)
(0.99904016778746 -0.023537121437978 0)
(0.99901045331435 -0.025247461705967 0)
(0.99901865301665 -0.027042453073236 0)
(0.99904923191165 -0.028890106967443 0)
(0.99914434083209 -0.030848139354257 0)
(0.99926104333561 -0.032835062078609 0)
(0.99948742652345 -0.034985107810627 0)
(0.9997163400883 -0.037097785656384 0)
(1.0001396100521 -0.039488453683314 0)
(1.0005021863016 -0.041680241958209 0)
(1.0012333161539 -0.044401076776427 0)
(1.0017468125403 -0.046549021452832 0)
(1.0030509080118 -0.049746850962312 0)
(0.99999952145748 -0.00061122391435371 0)
(0.99998585858131 -0.0018559300549652 0)
(0.99996066773997 -0.0031039082082843 0)
(0.99992292087704 -0.0043403332752406 0)
(0.99987187275785 -0.0055722417426981 0)
(0.99980754024229 -0.0068109428999468 0)
(0.99973039388047 -0.008062371074917 0)
(0.99964100216342 -0.0093268282326805 0)
(0.99953983492466 -0.010600592963295 0)
(0.99942754148427 -0.011880696245709 0)
(0.99930427615933 -0.013169134349249 0)
(0.99917083884789 -0.014476438293985 0)
(0.99902802045856 -0.015816989807645 0)
(0.9988787867727 -0.01720765152059 0)
(0.99872538039016 -0.018658446670258 0)
(0.99857372409368 -0.020179765952831 0)
(0.99842610741552 -0.021770071065713 0)
(0.99829205323665 -0.023439423082074 0)
(0.99817126623714 -0.025177036799997 0)
(0.99807997768196 -0.027006661800977 0)
(0.99801062903611 -0.028899199028639 0)
(0.99799441535959 -0.030912197395167 0)
(0.99800519167001 -0.032964569458395 0)
(0.99810812166901 -0.035198266148676 0)
(0.99823000202635 -0.037395567205548 0)
(0.99851645108049 -0.039917904564646 0)
(0.99878060984224 -0.042196988205968 0)
(0.99936413986485 -0.045153469244238 0)
(0.99982941106656 -0.047335040148656 0)
(1.0009848281067 -0.050998312217856 0)
(0.99999937514243 -0.00060425305343504 0)
(0.99998109238033 -0.0018364950442143 0)
(0.9999472312517 -0.0030723956856401 0)
(0.99989613014494 -0.0042961732989762 0)
(0.99982679728945 -0.0055150432544222 0)
(0.99973946075861 -0.0067409239256533 0)
(0.99963472596077 -0.0079798174141554 0)
(0.9995124726482 -0.009231998747684 0)
(0.99937297573839 -0.010493449572547 0)
(0.99921707402251 -0.011761065132508 0)
(0.99904525313765 -0.013037385489218 0)
(0.9988580368059 -0.014333892674683 0)
(0.9986562523026 -0.015666482894746 0)
(0.99844194416563 -0.017053120149948 0)
(0.99821785219014 -0.018505741836411 0)
(0.99798849852513 -0.020034791494991 0)