/*--------------------------------*- C++ -*----------------------------------*\
| =========                 |                                                 |
| \\      /  F ield         | OpenFOAM: The Open Source CFD Toolbox           |
|  \\    /   O peration     | Version:  2112                                  |
|   \\  /    A nd           | Website:  www.openfoam.com                      |
|    \\/     M anipulation  |                                                 |
\*---------------------------------------------------------------------------*/
FoamFile
{
    version     2.0;
    format      ascii;
    arch        "LSB;label=32;scalar=64";
    class       volScalarField;
    location    "13.3";
    object      p;
}
// * * * * * * * * * * * * * * * * * * * * * * * * * * * * * * * * * * * * * //

dimensions      [0 2 -2 0 0 0 0];

internalField   nonuniform List<scalar> 
22000
(
0.037484981385952
0.037462887295005
0.037417130320011
0.037346620698258
0.037250864696917
0.037129859238204
0.036983848637161
0.036813104113149
0.03661782753881
0.03639816407019
0.036154245939607
0.035886227578932
0.035594296231964
0.035278675608438
0.03493961424205
0.034577390431456
0.034192298138543
0.03378466987898
0.033354848319792
0.032903235027932
0.03243022170993
0.031936296963869
0.031421888863983
0.030887603822432
0.030333869914355
0.029761475315818
0.02917075935035
0.02856283236726
0.02793772023985
0.027297135250247
0.037899856173978
0.037876631341285
0.037829533772487
0.037757578155416
0.037660222345461
0.037537386459243
0.03738925857162
0.037216078913729
0.03701803304748
0.036795254745569
0.036547862860786
0.036275995679095
0.035979820380753
0.035659540836755
0.035315383018476
0.034947606603398
0.034556482282146
0.034142328096216
0.033705461176694
0.033246275666767
0.032765130658614
0.032262521107343
0.031738826239383
0.031194686651368
0.030630443554033
0.030046974048016
0.029444431176231
0.028824121027863
0.028185587963642
0.027530863966443
0.038659614261098
0.038635695707902
0.038587283623001
0.038513467862653
0.038413746057164
0.038288032717534
0.038136485503476
0.03795930908792
0.037756656338217
0.037528631831138
0.037275324084659
0.036996839778609
0.036693309893264
0.036364902822693
0.036011803766378
0.035634237411647
0.035232430212276
0.034806670387866
0.034357225207151
0.033884471726898
0.033388707179565
0.032870436983487
0.032329950554704
0.031767956631165
0.031184640213254
0.03058106862486
0.029957065866626
0.029314388025738
0.028651711260152
0.027971860582372
0.039713217543022
0.039688616346092
0.039638828929355
0.039562936071632
0.039460431437243
0.039331219894509
0.039175437940135
0.038993257963558
0.038784792502924
0.038550102668247
0.038289229560615
0.038002231148252
0.037689183706259
0.037350201878614
0.036985408753792
0.036594974381142
0.0361790563201
0.035737894121124
0.035271676852497
0.034780750270414
0.034265315152465
0.033725884609145
0.033162610503402
0.032576290730947
0.03196687441735
0.031335687723652
0.030682059211361
0.030008356483066
0.029311958546451
0.028596773053568
0.041015828515468
0.040990519264457
0.040939297292603
0.040861223017433
0.04075576966981
0.040622819258283
0.040462477985243
0.04027487669922
0.040060074844877
0.03981807386321
0.039548848084565
0.039252386076848
0.038928686484728
0.038577787216213
0.038199723032589
0.037794584581332
0.037362430427832
0.036903426669548
0.036417649417169
0.035905391815323
0.035366716094442
0.034802131391343
0.034211595401087
0.033596005530738
0.032954986869925
0.032290182528256
0.031600261534633
0.030888370474294
0.030150209669543
0.029391112034416
0.042527481356849
0.042501509514531
0.042448943319646
0.042368824641068
0.042260600944899
0.042124120144346
0.041959443848262
0.04176664555122
0.041545714163151
0.041296572429849
0.041019106319658
0.040713211698431
0.04037878329822
0.040015755256171
0.039624043213428
0.039203628636397
0.038754435548249
0.038276525789333
0.037769821280787
0.037234534027443
0.036670538186998
0.036078319119314
0.035457576420268
0.034809308404919
0.03413272301682
0.033429830411509
0.032698476136899
0.031942740794295
0.031156265984199
0.030346108540702
0.044211948290608
0.044185446347885
0.044131801490238
0.044050040536252
0.043939580824509
0.04380022516146
0.043631975539836
0.043434830870385
0.043208690455706
0.042953377715706
0.042668666985186
0.042354336099375
0.042010147016293
0.041635899859872
0.041231356548211
0.040796355134205
0.040330644487294
0.039834145557812
0.039306578438937
0.038748038097108
0.038158153548877
0.037537357371302
0.036885018704043
0.036202227124018
0.035487671482792
0.034743762571229
0.033967349812273
0.03316357640009
0.032323636602098
0.031456557101221
0.046035827710271
0.04600901131247
0.045954720926697
0.045871973234829
0.045760151501915
0.045619002503085
0.045448453614814
0.045248411887462
0.045018667726778
0.044758924109426
0.04446881965351
0.044147987620535
0.04379602667498
0.043412570446645
0.042997189707933
0.042549541260957
0.042069153961956
0.041555765935853
0.041008841918476
0.040428316527994
0.039813508869216
0.039164759829392
0.03848102670925
0.037763466739219
0.037010138501435
0.036223868645863
0.035400330653272
0.034545830362732
0.033648725301319
0.032720200511553
0.047967989374538
0.047941151197072
0.047886802879005
0.047803956409544
0.047691957589767
0.047550487229973
0.047379384138061
0.047178447113411
0.046947339119411
0.046685622135258
0.046392775375223
0.046068261083761
0.045711483904431
0.045321877706264
0.044898783430373
0.0444416366249
0.043949698558024
0.04342247852547
0.042859127833514
0.042259370792786
0.04162214533066
0.040947651471945
0.040234345022552
0.039483413030979
0.038692164378376
0.037863835238195
0.03699273976968
0.036086413492371
0.03512999159819
0.034136933128105
0.049979310848965
0.049952807505698
0.049899126702761
0.049817274827993
0.049706554908786
0.049566573911758
0.049397071166195
0.049197723618053
0.04896805061815
0.048707454549221
0.04841523337363
0.048090653448662
0.047732896161214
0.047341163283342
0.046914528006981
0.046452164299982
0.045953017780549
0.045416320560189
0.044840850265032
0.044226065723976
0.04357044824899
0.042873998696106
0.042134575654528
0.041353342257327
0.040526731327014
0.039658358284299
0.038740992288124
0.037783424729448
0.036767194250316
0.035708056047235
0.05204263925398
0.052016876799034
0.051964691062089
0.05188508540392
0.051777315208482
0.051640906789315
0.051475491439024
0.051280613545397
0.051055635903131
0.05079978627538
0.050512163423895
0.050191816457928
0.049837677855879
0.049448687655061
0.04902361645422
0.048561337802731
0.048060435992474
0.047519816915577
0.046937825530176
0.046313595930402
0.045645077616159
0.044932005183596
0.044171543548153
0.043364763068083
0.042507091356963
0.04160246225166
0.04064191112144
0.039635459724917
0.038560694351326
0.037435596622106
0.054132846363471
0.054108265880336
0.054058467599474
0.053982462814598
0.05387946031646
0.053748901181992
0.053590301974946
0.053403066996432
0.053186393847965
0.052939324578791
0.052660745162009
0.052349471043711
0.052004166409415
0.051623484897199
0.051205865783354
0.050749846494909
0.050253610339932
0.04971568814805
0.049133939560439
0.048507109802508
0.047832548567427
0.047109645263548
0.046334784434019
0.04550885687151
0.044626168503985
0.043690889958266
0.042692138461253
0.041641060936706
0.04051093758208
0.039321690145431
0.056226927153818
0.056203986398763
0.05615750214066
0.056086508823266
0.055990174038833
0.055867852218419
0.055718941300221
0.055542701601152
0.055338162315125
0.05510417539433
0.054839407586934
0.054542429694099
0.054211624268688
0.053845340510902
0.053441666505992
0.052998773965373
0.052514414649068
0.051986698076861
0.051412956394527
0.050791477466956
0.050118957816195
0.049394343788555
0.048613177617649
0.047776036680033
0.046876050336029
0.045917442092564
0.044887436975162
0.043797962609029
0.042618162272007
0.04136834372544
0.058304142715822
0.058283300598271
0.058241060379876
0.058176497097435
0.05808874582082
0.057977076608967
0.057840768994698
0.057678940209288
0.057490453176409
0.057273971696687
0.057027944229362
0.05675069535256
0.0564403215763
0.056094857859556
0.055712028577576
0.055289620840693
0.054824933053698
0.054315617684174
0.053758445023022
0.053151183752792
0.052489834641241
0.05177279507144
0.050994731509911
0.050155717550598
0.049247717798775
0.04827466157013
0.047222033246152
0.046101849220705
0.044880357945477
0.043577020228738
0.060346149267289
0.060327850613154
0.060290757449262
0.060234004110873
0.060156704160853
0.060058049184314
0.05993720490023
0.059793151656512
0.059624594302134
0.059430017577363
0.059207660057484
0.058955607256569
0.058671674390006
0.058353584755232
0.057998696273561
0.057604404725852
0.057167541011228
0.056685283245657
0.056153807178638
0.055570329088343
0.054930092965267
0.054230898260591
0.053466434367052
0.052636208904059
0.051730868809603
0.050753974907574
0.049689030294236
0.048548222385097
0.047293763026736
0.045945341997942
0.062337084461444
0.062321746103099
0.062290647606012
0.062243002409228
0.062177915594817
0.06209450905998
0.061991843482741
0.06186877388198
0.061723861416874
0.06155542782647
0.061361518044406
0.061139994504331
0.060888405655587
0.060604176446781
0.060284308196556
0.059925812438599
0.059525051298407
0.059078723915443
0.058582394550461
0.05803270698267
0.057424104796427
0.056753749036442
0.056014270116614
0.055204553143927
0.054313788519146
0.053345120795303
0.052279797974425
0.051130168748575
0.049853720396885
0.048470004067226
0.064263597004685
0.06425159582142
0.064227260125186
0.064189902799967
0.064138634934693
0.064072520291909
0.063990527075235
0.063891401218813
0.063773580189932
0.063635245199235
0.063474271256155
0.063288322203612
0.063074704042467
0.062830567545784
0.062552579437335
0.06223738754737
0.061880899813296
0.06147934738099
0.061027681435954
0.060521970793206
0.059955833154754
0.059325768848459
0.058623282042553
0.05784658899446
0.056983294892243
0.056036071024632
0.054983690820629
0.053838609462785
0.052553020358286
0.051145878234043
0.066114816139205
0.066106478963388
0.066089575843683
0.066063538588219
0.066027499931352
0.065980479087929
0.065921367744473
0.065848823195415
0.065761183998727
0.065656518623998
0.065532562525285
0.065386812952009
0.065216366942227
0.065018135181513
0.064788483847007
0.064523730270742
0.064219358022772
0.063871157756761
0.063473485217476
0.063021849202051
0.062509036952043
0.061930889100846
0.06127773933401
0.06054711054793
0.059724897746486
0.058813234217197
0.057788178520083
0.056662259133903
0.055381868192671
0.053965360160742
0.067882265503255
0.067877863763527
0.067868949573422
0.067855095627108
0.067835471623987
0.067809067109339
0.067774716441195
0.067731012149631
0.0676762224288
0.067608334343985
0.067524979502632
0.067423526569342
0.067300906114671
0.06715383131195
0.066978413929638
0.066770684013512
0.066525746505018
0.066238991162669
0.065904217697586
0.065516405012673
0.065067531436042
0.064552794469154
0.063961351757964
0.063290041530783
0.062522984380479
0.061661721917491
0.060679358282591
0.059588196877159
0.058328409308583
0.056916831689065
0.069559715036942
0.069559465800636
0.069558982216481
0.069557996255183
0.069555731088192
0.069551163281084
0.069543090665964
0.069530067375715
0.069510324435478
0.069481802553846
0.069442069166701
0.069388404107268
0.069317620839943
0.06922628285476
0.069110307774847
0.068965488451508
0.068786618066203
0.068568729829235
0.068305137495601
0.067990318982083
0.067615510409915
0.067175265616321
0.066657620084453
0.066058702199466
0.065360945652953
0.064565246643396
0.063641984647033
0.062602405463144
0.061381312749719
0.059988228502257
0.071142992060112
0.071147058869963
0.071155337251572
0.071167730575058
0.071183531494166
0.071201721915762
0.071221082441322
0.071240150917999
0.07125715587795
0.071270032397038
0.071276332688742
0.071273291261301
0.071257660230264
0.071225898897205
0.071173802004699
0.071096971693823
0.070989982889316
0.07084755071838
0.070662624997491
0.070429191941816
0.070137898140954
0.069782596876973
0.069350376183419
0.06883646521446
0.068221838557663
0.067506454329472
0.066658722640247
0.065688177080928
0.064526076810408
0.063170313227857
0.07262975151921
0.072638238625812
0.072655503749997
0.072681623833913
0.072715976224636
0.072757569299302
0.072805183398992
0.072857359242498
0.072912352553304
0.072968123684477
0.073022257377235
0.073071992111655
0.073114090648982
0.07314495989776
0.073160360984182
0.073155740372895
0.073125572469157
0.073064256033293
0.072964562937045
0.072819927011358
0.072620713973867
0.072359889244477
0.072024058378588
0.07160713743511
0.071089051700506
0.070468215770677
0.069710832819967
0.068826752666739
0.06774096590466
0.066448937655751
0.074019300587311
0.074032171648917
0.074058457014091
0.074098444270687
0.074151610177193
0.074216981337864
0.074293334972284
0.074379244920556
0.074473039068658
0.074572726572276
0.074675953647973
0.074779993400905
0.074881676909096
0.074977402413473
0.075063000749827
0.075133806188317
0.075184352226793
0.075208698011849
0.075199688591173
0.075150007252804
0.075050227519651
0.074891894946562
0.074662161067052
0.074352506229925
0.073943607001255
0.073430200824026
0.072777067107741
0.071991927237967
0.070991318182198
0.069786923450447
0.075312636323743
0.075329573549193
0.075364457049327
0.075418025912091
0.075489886684841
0.075578986396381
0.075684071549608
0.075803823022333
0.075936657076681
0.076080636900551
0.076233512261028
0.076392649283973
0.076554999453329
0.076716965837846
0.076874476210873
0.077022743756279
0.077156469686989
0.077269371643422
0.077354656259821
0.077404069767764
0.077409011419254
0.077358742403527
0.077242559207077
0.077046911572761
0.07675789422392
0.076359772576068
0.075828196816004
0.075147895823926
0.074241890063034
0.073092788693921
0.076512778257939
0.076533463622488
0.076575961102342
0.076642149374124
0.076731863634696
0.076843734706111
0.076976282993016
0.077128784783571
0.077299702568097
0.077487072037812
0.077688716511715
0.077902145121598
0.078124568989489
0.078352578880709
0.078582298115309
0.078808881155228
0.079027147376874
0.079230465781348
0.079412397718078
0.079563895251104
0.079677504520862
0.079740249114642
0.07974451254432
0.079670257511328
0.07951271715845
0.079238880157183
0.078852088153608
0.078290015411707
0.077535104073972
0.076371575304426
0.0266810370521
0.026092494289804
0.025492127601222
0.024881126770856
0.024260521793821
0.023631102575256
0.022993529792258
0.0223484390763
0.021696500393659
0.021038436114054
0.020375009841822
0.019707005854085
0.019035215134515
0.018360431529615
0.017683452408457
0.017005079163396
0.016326116138141
0.015647368246578
0.014969637821631
0.014293721999396
0.013620411276912
0.012950490818697
0.012284744850566
0.011623966927589
0.01096895709392
0.010320381711294
0.0096786796270378
0.0090444884873254
0.0084185187522269
0.0078014361196529
0.0071938332861588
0.0065962437307737
0.006009154670166
0.0054330162543676
0.0048682414450844
0.0043152085746137
0.0037742529971107
0.0032456741471247
0.0027297216493592
0.0022266149755534
0.001736513791883
0.0012595629856012
0.00079582571201092
0.00034538473091402
-9.1808750633441e-05
-0.00051570896768822
-0.00092651858598542
-0.0013241859071592
-0.0017092104364212
-0.00208151893249
0.026903935052465
0.026307420599305
0.025697462887547
0.025076636207711
0.024446424215306
0.023807490047354
0.023160213345506
0.022505003481406
0.021842419782029
0.021173164691744
0.020498018240602
0.019817779639938
0.019133245583032
0.018445215429654
0.017754500932203
0.017061929870138
0.016368344488006
0.01567459740019
0.014981546600919
0.014290050694682
0.013600964245525
0.012915130157079
0.012233366147147
0.011556440671354
0.010885059728565
0.010220022157479
0.0095623498540946
0.0089127968305232
0.0082719932208289
0.0076405574576102
0.0070191076962376
0.0064082425345106
0.0058085241198976
0.0052204751958878
0.0046445704064179
0.0040812432066891
0.0035308735375726
0.0029938060015939
0.0024703215715142
0.0019606796348329
0.0014650540108368
0.00098363054079052
0.00051646133579998
6.3688250490914e-05
-0.00037479024183827
-0.00079880728585068
-0.0012086828556759
-0.0016040402182458
-0.0019854926465303
-0.0023517822948419
0.027322510135542
0.026703915994067
0.026068253692243
0.025421195321928
0.024765410069564
0.024101482967129
0.023429348828642
0.022749064009919
0.022061059003247
0.021366077081688
0.020664995165742
0.019958688774609
0.01924799600158
0.018533741985992
0.017816766956076
0.017097936141494
0.016378136989224
0.015658271595155
0.014939248193893
0.014221974707463
0.013507354834952
0.01279628594108
0.012089658685465
0.011388363732516
0.010693303450654
0.010005360600428
0.009325313723635
0.0086539456477209
0.0079920099004356
0.0073402224816523
0.0066992639499232
0.0060697818513048
0.005452381057736
0.0048476247768185
0.0042560218242971
0.0036780406682329
0.0031140861175122
0.0025645337314509
0.0020296763393184
0.0015098050436582
0.0010050858554204
0.0005157487571638
4.1801993364483e-05
-0.0004165283306624
-0.00085945981812215
-0.0012866280611785
-0.0016986032867304
-0.0020944568121591
-0.002475117025958
-0.0028372386166343
0.027914156100184
0.027260417805287
0.026584537433229
0.025897088457595
0.025202509401011
0.024501172155579
0.023792275226503
0.02307532444089
0.022350558539228
0.021618779913367
0.020880995705209
0.02013817039896
0.019391173277061
0.018640835219793
0.017888005719432
0.017133572069372
0.016378454751172
0.015623595719503
0.014869946680138
0.014118461987814
0.013370096396653
0.012625803550284
0.011886531801942
0.011153216548779
0.010426769316485
0.0097080759355452
0.0089980191200753
0.0082974433009498
0.0076071571251988
0.0069279356253368
0.0062605143453724
0.0056055902877512
0.0049638120276985
0.0043357875803623
0.003722066385693
0.0031231619960612
0.0025395137696426
0.001971543183267
0.0014195660124422
0.00088392613703373
0.00036479052575154
-0.00013753580364031
-0.00062308937735106
-0.0010915085348693
-0.0015431529077191
-0.0019773531687932
-0.0023949980921665
-0.0027942990169466
-0.0031765025508606
-0.0035349191282889
0.028666247540537
0.02796605406231
0.027237054032139
0.026496586908176
0.025751432832031
0.025001567137599
0.024245127447842
0.023480867938454
0.022708785651025
0.021929775234577
0.021145018033497
0.020355587615536
0.01956238196082
0.018766227590897
0.017967975873747
0.017168533557369
0.016368854457598
0.01556992140575
0.014772729677184
0.013978277895237
0.013187565941077
0.012401593760571
0.011621356624927
0.0108478394853
0.01008201259829
0.0093248279368463
0.0085772160603381
0.0078400800968852
0.0071142890701816
0.0064006772224355
0.0057000365666176
0.0050131202814831
0.0043406302404462
0.0036832295261739
0.0030415172981859
0.0024160622186812
0.0018073469476524
0.0012158503696932
0.0006419186954161
8.5963104753138e-05
-0.00045184499704711
-0.00097110350699407
-0.001471898900249
-0.0019536919407778
-0.0024170089926197
-0.0028607794795609
-0.0032862810269645
-0.0036905990134357
-0.0040753847011974
-0.0044295595298211
0.029571378896946
0.028814358536418
0.028020017586724
0.027214525062622
0.026407624912696
0.025598684821343
0.024784429264701
0.023962658192983
0.023133092822991
0.022296770232121
0.021455100777591
0.020609292858471
0.019760273775854
0.018908858295997
0.018055895734122
0.017202313239351
0.016349101060513
0.015497286047004
0.014647909241906
0.01380201494148
0.012960650064315
0.012124864820129
0.011295708506899
0.010474223703353
0.009661440886518
0.0088583704911673
0.0080660001870572
0.0072852929209624
0.006517178863099
0.005762554248157
0.0050222721875843
0.0042971478388358
0.0035879424417019
0.0028953807298652
0.0022201182142818
0.0015627859124473
0.00092391689734599
0.00030405640539451
-0.00029641156608908
-0.00087699615415484
-0.0014375165708363
-0.0019774540777111
-0.0024969493907492
-0.0029952517250979
-0.0034730797648787
-0.0039288890695961
-0.0043644051400347
-0.0047753547840421
-0.0051638145306174
-0.005513178263458
0.030625489835069
0.029801872557814
0.028930328404623
0.028048185485178
0.027168821453976
0.026290727287567
0.0254088083703
0.024519693448349
0.023622804660951
0.022719386279538
0.021811139741364
0.020899433890303
0.019985223680065
0.019069303743306
0.018152517783067
0.01723581549056
0.016320228099893
0.015406830910641
0.014496714557552
0.013590972523673
0.012690702346978
0.01179700828714
0.010910997069089
0.010033770866549
0.0091664208412422
0.008310019410557
0.0074656202088925
0.0066342521088272
0.005816911315585
0.0050145615828528
0.0042281234777352
0.0034584811768694
0.0027064632222693
0.0019728643897888
0.0012584055615238
0.00056378967792045
-0.00011038923691172
-0.00076350895640488
-0.0013951358084811
-0.0020046863801014
-0.0025919592506075
-0.0031562989359793
-0.0036978978775035
-0.004215752767151
-0.0047107948707347
-0.0051809274443917
-0.005628355737791
-0.0060472907785153
-0.0064400646177412
-0.0067836934028394
0.031827485888268
0.030927968575848
0.02996753759922
0.028997335287959
0.028035099439638
0.027078102697513
0.026118958156879
0.025152887166069
0.024179002012164
0.023198835670305
0.022214451131368
0.021227404813188
0.020238676406652
0.019249031191791
0.018259305130197
0.017270475356791
0.016283621361326
0.015299873749891
0.014320378410215
0.013346282849749
0.012378739980242
0.011418913075583
0.010467971518151
0.0095270827901644
0.0085974055959819
0.0076800817666568
0.006776237603339
0.005886975696077
0.0050133665071711
0.0041564493501848
0.0033172209813159
0.0024966436062356
0.0016956228056966
0.00091503345268666
0.0001556728098815
-0.00058167315059274
-0.0012963375090326
-0.0019876087063556
-0.0026549895923411
-0.0032977917510564
-0.0039157762584417
-0.0045081389998725
-0.0050751059448935
-0.005615400077966
-0.0061301627721681
-0.0066166646777074
-0.0070776420572569
-0.0075054823034234
-0.0079028140278778
-0.0082389113875611
0.033178474615462
0.032194122156764
0.031133161553425
0.030063579891125
0.029008260522472
0.027962829050588
0.026917058888161
0.025864513222097
0.024804003444676
0.023737453279138
0.022667365032965
0.021595507418755
0.020522879196636
0.019450207780986
0.018378321606325
0.017308232987483
0.016241079800671
0.015178057007941
0.01412037333487
0.013069237189753
0.012025863681405
0.010991482296393
0.0099673328249251
0.0089546562615916
0.0079546874527206
0.0069686461299976
0.0059977399176719
0.0050431542001438
0.0041060434652353
0.0031875325954639
0.0022887050535842
0.0014106114601415
0.00055424602895618
-0.00027942493763668
-0.001089515471602
-0.0018751437172831
-0.002635557049646
-0.0033699391792406
-0.0040777181662547
-0.0047580804640236
-0.005410741702768
-0.0060347226981813
-0.006630276920544
-0.0071958219981888
-0.00773270021867
-0.0082375020928517
-0.0087134834659236
-0.0091510278912443
-0.0095529347576735
-0.0098795458067651
0.034681029176314
0.03360320447005
0.0324300364428
0.031249800831617
0.030091354354096
0.028948135917679
0.027806448649156
0.026657935588138
0.025501144704807
0.024338520045519
0.023173090711222
0.022006859781746
0.020840834372995
0.019675694132163
0.018512263398616
0.017351601563018
0.01619491764519
0.015043481811659
0.013898574796386
0.012761474454485
0.011633466958173
0.0105158574128
0.0094099658991575
0.0083171170886537
0.0072386323774061
0.0061758198130229
0.0051299791722102
0.0041023898542004
0.003094302059981
0.0021069379481298
0.0011414802035859
0.0001990804777547
-0.00071916492403567
-0.0016121850609558
-0.0024789900288904
-0.0033185887148378
-0.0041301256060711
-0.0049126664495721
-0.0056655450092172
-0.0063878081049806
-0.0070791084695079
-0.0077382679084162
-0.0083655654278485
-0.0089590653049368
-0.0095203426679686
-0.010045215773667
-0.010537528244812
-0.010985422744352
-0.011391803262098
-0.011706772849406
0.036338556233277
0.035158907443053
0.033861790244019
0.032559668520188
0.03128823554793
0.030038065170523
0.028791264492592
0.027537293828
0.026274515335993
0.025006051571965
0.023735551193805
0.022465267261232
0.021196199584354
0.019928970777031
0.018664408213595
0.017403635161019
0.016147948895745
0.014898707993046
0.01365727601516
0.012425010990227
0.011203281371731
0.0099934794635213
0.0087970176035236
0.007615316389157
0.0064497963683608
0.0053018665558865
0.0041729320440957
0.003064379610413
0.0019775691805322
0.00091383447681613
-0.00012552774129728
-0.0011392499521034
-0.0021261179567287
-0.0030849401687572
-0.0040146067498499
-0.0049139995774259
-0.0057821441364501
-0.0066179687704427
-0.0074206965497194
-0.0081892152723911
-0.0089230948436272
-0.009620942044509
-0.010283037693098
-0.010907071361603
-0.011494839065973
-0.012041324183262
-0.012550977780605
-0.013009486084976
-0.013419759202274
-0.013720296638316
0.038154607321901
0.036865102401783
0.035432332655994
0.033997249975989
0.032603234498947
0.031237173969221
0.029876168242416
0.028507243427255
0.02712871000097
0.025744564905563
0.024359170162099
0.022975032073292
0.021593121383434
0.020213996429275
0.018838500523165
0.01746784263168
0.016103428404965
0.014746720340831
0.013399177656135
0.012062251294687
0.010737405931191
0.0094261357484402
0.0081299602753786
0.0068504110697946
0.0055890231564446
0.0043473216331712
0.0031268324730835
0.0019290658931119
0.00075550813780629
-0.00039237880885016
-0.0015131667368737
-0.0026054544954754
-0.0036678919652169
-0.004699148260359
-0.0056979747632817
-0.0066631063172578
-0.0075934311959317
-0.0084877176249006
-0.0093450619617211
-0.010164166925027
-0.010944506320101
-0.011684444989731
-0.012384252443932
-0.013041214931585
-0.013657341785312
-0.014226715672207
-0.014754390894488
-0.015223349154511
-0.015636282231112
-0.015918703953146
0.040132493986966
0.038725254136873
0.037145181745417
0.035566401192583
0.034040663491653
0.032550110179464
0.031065960205403
0.029572619308861
0.028068551499435
0.026558851444192
0.025048682507324
0.023540792672467
0.022036096586681
0.020535087540457
0.019038646471017
0.017548096003035
0.016064974162422
0.014590865253903
0.013127339323823
0.011675955999531
0.010238293167004
0.0088159645905551
0.0074106149656071
0.0060239048865089
0.0046575020223017
0.0033130654612095
0.001992260381998
0.00069673942930126
-0.00057186551029689
-0.0018119439633483
-0.0030219162145512
-0.004200226439414
-0.0053453678225375
-0.0064558478296242
-0.0075302581072326
-0.0085671627791731
-0.009565292308463
-0.010523228579922
-0.011439924533682
-0.01231386551339
-0.013144421526667
-0.013929675100761
-0.014669884769231
-0.015361893662699
-0.016007930064901
-0.016601138854403
-0.017147225825917
-0.017626345572523
-0.018040965376683
-0.018302316201588
0.042274912319668
0.040742250396052
0.039003437107654
0.037270656104674
0.035604581203651
0.033981324958873
0.032365281822688
0.030738135775325
0.029098798036608
0.027453703425765
0.025808882778899
0.024167295422297
0.022529770590953
0.020896744086588
0.01926916723341
0.01764851134224
0.016036473170892
0.014434778651799
0.012845126851875
0.011269205452533
0.0097087266039826
0.00816544545149
0.006641153502447
0.0051376620306197
0.0036567931026899
0.0022003609498545
0.00077019125522785
-0.00063189841198138
-0.0020041081848141
-0.0033446550767186
-0.0046517847228574
-0.0059237610809398
-0.0071588973832052
-0.0083555126059422
-0.0095120151942793
-0.010626770092337
-0.011698327624491
-0.012725052027165
-0.0137057356153
-0.014638607366862
-0.015522931777937
-0.016356452676766
-0.017139441824694
-0.017868230073071
-0.018545302008652
-0.019162818362455
-0.019727151117047
-0.020215511379945
-0.020629976271634
-0.020866089785767
0.044582600915806
0.042917813042286
0.041009305292954
0.039112930442884
0.037298584227718
0.035534848451646
0.033778393106521
0.032008198225822
0.03022398418293
0.028433770085286
0.02664449252776
0.024859270813583
0.023078819560264
0.021303538556372
0.019534495162068
0.017773351415859
0.016021992553646
0.014282307666346
0.012556145582893
0.010845345780176
0.0091517803955286
0.0074773721592689
0.0058240852609758
0.0041939073888359
0.0025888403514083
0.0010108780003552
-0.00053796858236185
-0.002055689757818
-0.0035402918741383
-0.0049897905498954
-0.0064022310524029
-0.0077756656533325
-0.0091082022851626
-0.010397936908252
-0.011643071457803
-0.012841734094163
-0.013992273617806
-0.015092796814313
-0.016141918147588
-0.017137566807081
-0.018078899261741
-0.01896325771915
-0.019790969938413
-0.020557741256698
-0.021266414710017
-0.021908024872991
-0.022489667946057
-0.022985519210264
-0.023397056311716
-0.023603010811425
0.047054042994537
0.045251553105659
0.043163464569243
0.041094957140149
0.039125303978444
0.037213911415544
0.035308863461695
0.033386605209504
0.031448131421087
0.029503292338281
0.027559922989543
0.025621222700145
0.023687766650159
0.021759957522317
0.019839038478348
0.017926910549885
0.016025678843618
0.01413742023232
0.012264159302845
0.010407916631165
0.0085707555429578
0.0067547977474195
0.0049622111863914
0.0031951909260268
0.0014559504880733
-0.00025331262668539
-0.0019303764985245
-0.0035730065157971
-0.0051789825323795
-0.006746082989045
-0.0082721243370842
-0.0097549091213951
-0.011192313253595
-0.012582164644027
-0.013922437077398
-0.015210968708467
-0.016445893342596
-0.017624999570529
-0.018746718600355
-0.019808618193
-0.020809747821565
-0.021746987287851
-0.022620753146909
-0.023426015476162
-0.02416612363971
-0.024830740844544
-0.025427940601924
-0.025928625489403
-0.026333567338199
-0.02650393505982
0.049686015613292
0.047741198293887
0.045464745187369
0.043216872214237
0.041086050961913
0.03902060186451
0.036959252428788
0.034876292109851
0.032774548189633
0.030665924368756
0.028559097174639
0.026457247988805
0.024360804106424
0.022270236181776
0.020187036835356
0.018113395573295
0.016051667733436
0.014004143982114
0.011973055245659
0.0099606382059591
0.0079691836651768
0.0060010489443446
0.0040586441662507
0.0021444111386445
0.00026081800081344
-0.0015897096819852
-0.0034047167938551
-0.0051817086067547
-0.0069181980155779
-0.0086116815006956
-0.010259710258643
-0.011859793217847
-0.013409544022226
-0.014906468993482
-0.016348291621419
-0.017732488439369
-0.01905697629464
-0.020319130260465
-0.021517225596456