/*--------------------------------*- C++ -*----------------------------------*\
| =========                 |                                                 |
| \\      /  F ield         | OpenFOAM: The Open Source CFD Toolbox           |
|  \\    /   O peration     | Version:  2112                                  |
|   \\  /    A nd           | Website:  www.openfoam.com                      |
|    \\/     M anipulation  |                                                 |
\*---------------------------------------------------------------------------*/
FoamFile
{
    version     2.0;
    format      ascii;
    arch        "LSB;label=32;scalar=64";
    class       surfaceScalarField;
    location    "13.3";
    object      phi;
}
// * * * * * * * * * * * * * * * * * * * * * * * * * * * * * * * * * * * * * //

dimensions      [0 3 -1 0 0 0 0];

oriented        oriented;

internalField   nonuniform List<scalar> 
43645
(
0.39512390053676
-5.0274547886096e-06
0.39513879841359
-1.489785546987e-05
0.39516341422405
-2.4615787363236e-05
0.39519768834087
-3.4274092949628e-05
0.39524158903754
-4.3900672665366e-05
0.39529508763709
-5.3498575740935e-05
0.39535815236842
-6.3064707917646e-05
0.39543074144556
-7.2589054191271e-05
0.39551279123608
-8.2049768083964e-05
0.39560421418858
-9.1422930562133e-05
0.39570489645581
-0.00010068224584375
0.39581470947774
-0.00010981300102182
0.39593350654803
-0.00011879704993275
0.39606114201513
-0.00012763544719657
0.39619745180134
-0.00013630976683187
0.39634228571684
-0.0001448338965501
0.39649545444104
-0.00015316870571222
0.39665680237718
-0.00016134791802903
0.39682609067037
-0.00016928827548561
0.39700317280446
-0.00017708211669816
0.39718773094053
-0.0001845581190165
0.39737968091602
-0.00019194995866592
0.39757856127079
-0.00019888033822019
0.39778446022252
-0.00020589893533498
0.39799660519792
-0.0002121449592135
0.39821549651255
-0.00021889129853579
0.39843966358109
-0.00022416705259992
0.39867057932438
-0.00023091572759587
0.39890520183156
-0.00023462249191074
-0.00024203957972303
0.39914724142673
0.37294722762166
-9.7003033355897e-06
0.37296117621479
-2.8846414060061e-05
0.37298441202071
-4.7851558103176e-05
0.37301688735128
-6.6749388353928e-05
0.37305857613072
-8.5589417358384e-05
0.37310945764469
-0.00010438005551757
0.37316951006801
-0.00012311709772466
0.37323870258505
-0.00014178153838849
0.37331698397465
-0.00016033112555416
0.37340428115545
-0.00017872007992146
0.37350049664347
-0.00019689770315141
0.37360551919106
-0.00021483551855993
0.3737192193297
-0.00023249715925522
0.37384146803334
-0.00024988412214732
0.37397211755292
-0.00026695925840891
0.37411103441818
-0.00028375073437159
0.37425804730862
-0.00030018156934032
0.37441301987231
-0.0003163204553768
0.37457573370769
-0.00033200208505087
0.37474606220895
-0.0003474105925188
0.37492370722878
-0.00036220311383191
0.37510860113201
-0.0003768438371615
0.37530029998611
-0.00039057916793401
0.37549890437945
-0.00040450330445025
0.37570366208415
-0.000416902639963
0.37591508322778
-0.00043031241829972
0.37613173220285
-0.00044081600399027
0.37635508674895
-0.00045427025038006
0.37658217898475
-0.00046171470529723
-0.00047659101314515
0.37681673044113
0.35201545243787
-1.4255181698347e-05
0.35202900730206
-4.2401241841579e-05
0.35205151342764
-7.0357647143861e-05
0.35208294919448
-9.818511900891e-05
0.3521233048064
-0.00012594499376488
0.35217256999211
-0.00015364520644149
0.35223073167511
-0.00018127874676182
0.35229776936745
-0.00020881919753758
0.35237364591869
-0.00023620764446192
0.35245830717537
-0.00026338130504249
0.3525516780469
-0.00029026854398865
0.35265367166276
-0.0003168291044807
0.35276418189263
-0.00034300736003305
0.35288310252585
-0.00036880472697428
0.35301030636936
-0.00039416307432203
0.35314568306973
-0.00041912740775171
0.35328908325249
-0.00044358172580863
0.35344039948706
-0.00046763666414401
0.35359943655361
-0.00049103912637637
0.35376610108133
-0.00051407509538907
0.35394010924241
-0.00053621125050256
0.35412142802696
-0.00055816259753656
0.35430960693122
-0.00057875804835947
0.35450479219342
-0.00059968854291565
0.35470619100554
-0.00061830142857659
0.35491439768324
-0.00063851907249507
0.35512786781935
-0.00065428611672648
0.35534825095017
-0.00067465335806882
0.35557231157423
-0.00068577530711607
-0.00070838623087412
0.35580410681496
0.33225845748771
-1.8668678729491e-05
0.33227161266174
-5.5556383379504e-05
0.3322934782707
-9.2223223440435e-05
0.3323240482529
-0.00012875506880791
0.33236332469083
-0.00016522139989047
0.33241130940563
-0.00020162989005167
0.33246800126423
-0.00023797057493179
0.33253339300704
-0.00027421091059732
0.33260746449007
-0.00031027909854195
0.33269018442188
-0.00034610120860443
0.33278150500349
-0.0003815890981523
0.33288136948826
-0.00041669356251091
0.33298970056142
-0.00045133840723656
0.33310642044673
-0.00048552458697005
0.33323142722949
-0.00051916983251356
0.33336463963592
-0.00055233979015372
0.33350593525209
-0.00058487731859952
0.33365524365365
-0.00061694504276156
0.3338123977528
-0.0006481932031144
0.3339773474478
-0.00067902476829121
0.3341498243247
-0.00070868810570701
0.33432984168644
-0.00073817993776905
0.33451693466729
-0.00076585100799677
0.33471131335219
-0.00079406720667794
0.33491212183818
-0.00081910989362139
0.33512007799687
-0.00084647521020887
0.33533348089033
-0.00086768898932346
0.33555424654358
-0.00089541899065976
0.33577877759184
-0.00091030633553517
-0.00094132559126491
0.33601171697288
0.31361033156331
-2.294283400481e-05
0.31362309840951
-6.8323199963841e-05
0.31364435709803
-0.0001134818822687
0.31367412573153
-0.00015852367294707
0.31371242114607
-0.00020351678569187
0.31375925876812
-0.00024846748400042
0.31381465159128
-0.00029336337076528
0.31387860877756
-0.0003381680702441
0.31395113124824
-0.00038280154341098
0.31403221557198
-0.00042718550725579
0.31412184685776
-0.00047122035966722
0.31422000463739
-0.0005148513185702
0.31432664636441
-0.00055798011149365
0.31444172888492
-0.00060060708534219
0.31456518122307
-0.00064262214925902
0.31469695796964
-0.0006841165158521
0.31483696979877
-0.00072488912746826
0.31498519189126
-0.00076516711539013
0.31514149146695
-0.00080449275942857
0.31530587205341
-0.00084340533561979
0.31547808421196
-0.00088090024549225
0.31565819996881
-0.00091829567595411
0.31584573747047
-0.00095338849121726
0.31604098907082
-0.0009893187885573
0.31624302191942
-0.001021142723865
0.31645271161683
-0.0010561648891159
0.3166681626605
-0.0010831400145034
0.31689162398585
-0.001118880297575
0.31711903924502
-0.0011377215769024
-0.0011780512194324
0.31735576489194
0.29600882847682
-2.7069424584008e-05
0.29602118593028
-8.0680625742866e-05
0.29604180689509
-0.00013410281938229
0.29607073844431
-0.00018745519478728
0.29610801571891
-0.00024079403349705
0.29615367061864
-0.00029412235752039
0.2962077329759
-0.00034742570252916
0.29627023148836
-0.00040066655786212
0.29634119198772
-0.00045376201869636
0.29642064369578
-0.00050663719189288
0.29650861009163
-0.00055918673289748
0.29660511302196
-0.0006113542269294
0.29671015072743
-0.00066301779576904
0.29682372103335
-0.00071417737065862
0.29694578998788
-0.00076469108388741
0.29707635517066
-0.00081468167923928
0.29721536710735
-0.00086390104536844
0.29736285547776
-0.00091265546738083
0.29751872900526
-0.00096036626900655
0.29768305552039
-0.0010077318330625
0.29785561009335
-0.0010534548011276
0.29803653593822
-0.0010992215036012
0.2982253350546
-0.0011421875906174
0.29842239878988
-0.0011863825068277
0.29862670890511
-0.0012254528222191
0.29883932612895
-0.0012687820959441
0.29905813298656
-0.0013019468551317
0.29928576285663
-0.0013465101507306
0.29951763353361
-0.0013695922375624
-0.0014203333437946
0.29975991567527
0.27939519394122
-3.10288219168e-05
0.27940708663754
-9.25732969135e-05
0.27942698228716
-0.00015399844389775
0.27945496018715
-0.00021543306999618
0.27949107636601
-0.00027691018814341
0.27953538165158
-0.00033842761944239
0.27958792519258
-0.0003999692205746
0.27964875801492
-0.00046149935786637
0.27971793424484
-0.00052293822703717
0.27979551997129
-0.00058422289738652
0.27988158192946
-0.00064524867088667
0.27997618979632
-0.00070596207421681
0.2800793883091
-0.00076621628973816
0.28019122245
-0.00082601149329718
0.28031170146696
-0.00088517008327737
0.28044087308369
-0.0009438532788547
0.28057873474523
-0.0010017626903756
0.28072537949856
-0.0010593002045085
0.28088076538569
-0.0011157521404007
0.28104503518494
-0.0011720016167687
0.28121799558
-0.001226415180959
0.28139987341504
-0.0012810993234808
0.28159015870464
-0.0013324728652528
0.2817893576844
-0.0013855814715382
0.28199636499186
-0.0014324601147203
0.28221245052144
-0.0014848676103725
0.28243526108634
-0.0015247574048764
0.28266785583648
-0.0015791048856911
0.28290508798146
-0.0016068243678516
-0.0016692659945279
0.28315402064794
0.26371397415999
-3.4793509819261e-05
0.26372532228517
-0.00010392139885531
0.26374436406509
-0.00017304020063564
0.26377121338952
-0.00024228237152612
0.2638059489284
-0.00031164570463934
0.2638486421534
-0.00038112082254758
0.26389936338269
-0.0004506904285855
0.26395818816588
-0.00052032412031951
0.26402520164624
-0.00058995168732967
0.26410051019341
-0.00065953142506607
0.2641842278357
-0.00072896629438417
0.26427647674207
-0.000798210962365
0.26437735319513
-0.00086709272526507
0.26448695494504
-0.00093561322618234
0.26460534033722
-0.0010035554590883
0.26473261401997
-0.0010711269456639
0.26486882738128
-0.0011379760362999
0.26501414528774
-0.0012046180959077
0.26516858325426
-0.0012701900923049
0.26533236929424
-0.0013357876423334
0.26550535024599
-0.0013993961186417
0.26568784875024
-0.0014635978137297
0.26587935050313
-0.0015239746043712
0.26608049149146
-0.0015867224460483
0.26629008411956
-0.0016420527291302
0.26650962711811
-0.0017044105951013
0.26673653087148
-0.0017516611444705
0.26697430865418
-0.0018168826546468
0.26721723661974
-0.0018497523201388
-0.001925343761011
0.2674733144005
0.24891283035813
-3.8331157990582e-05
0.24892353913455
-0.0001146301542912
0.24894157325279
-0.00019107429795313
0.24896708245634
-0.00026779155441748
0.24900016888313
-0.00034473211124038
0.2490409255381
-0.00042187745775246
0.2490894450304
-0.00049920990169001
0.2491458288857
-0.00057670795689641
0.24921019515041
-0.00065431793393476
0.24928269284774
-0.00073202910480398
0.24936348620487
-0.00080975963456319
0.24945275332135
-0.00088747806239245
0.24955064604107
-0.00096498542917979
0.24965731945792
-0.001042286627682
0.24977288623431
-0.0011191222207261
0.24989751380556
-0.0011957545025426
0.2500313140945
-0.0012717763113833
0.25017453120531
-0.0013478351931455
0.25032724628175
-0.0014229051555958
0.2504897817869
-0.0014983231345046
0.25066203449864
-0.0015716488177151
0.25084443395153
-0.0016459972540068
0.25103647261944
-0.0017160132598786
0.25123892903737
-0.0017891788515207
0.25145054522924
-0.0018536689086697
0.25167306248025
-0.0019269278336408
0.25190366741316
-0.0019822660649571
0.25214633972316
-0.0020595549522423
0.25239479529282
-0.0020982078778289
-0.002188524125698
0.25265797567049
0.23494236461617
-4.1608195883805e-05
0.2349523313437
-0.00012459686259924
0.23496919289699
-0.00020793583206827
0.2349931341917
-0.00029173283017841
0.23502428041909
-0.00037587832007502
0.23506274594198
-0.00046034296243736
0.23510864579527
-0.00054510973725646
0.2351621079223
-0.00063017006659954
0.23522328410799
-0.00071549410285476
0.23529236712646
-0.00080111210691587
0.23536957298104
-0.00088696547335536
0.23545513759507
-0.00097304266107502
0.23554927108937
-0.0010591189087056
0.23565218893502
-0.0011452044589589
0.23576406236907
-0.0012309956409436
0.23588512585157
-0.0013168179715556
0.23601555781455
-0.0014022082613588
0.23615568701543
-0.0014879643812838
0.236305668361
-0.0015728864888322
0.23646592551064
-0.0016585802719705
0.23663641646073
-0.0017421397559572
0.23681768569723
-0.0018272664787314
0.23700924784444
-0.0019075753955381
0.23721203293293
-0.0019919639284484
0.2374247322518
-0.0020663682161465
0.23764933651014
-0.0021515320804989
0.23788283605502
-0.0022157655984651
0.23812967090173
-0.0023063897876477
0.23838304635172
-0.0023515833169467
-0.0024582884660369
0.23865281070385
0.2217559549821
-4.4593371441602e-05
0.2217650787275
-0.00013372059057819
0.22178060541665
-0.00022346250384962
0.22180275247377
-0.00031387987009852
0.22183166713297
-0.00040479296241117
0.22186748445253
-0.00049616026541964
0.22191034135234
-0.00058796662091725
0.22196039151945
-0.00068022021787372
0.22201781993821
-0.00077292250626233
0.22208286253762
-0.00086615469131032
0.22215578706124
-0.00095988998246752
0.2222368872522
-0.0010541428378894
0.22232643276274
-0.0011486644056093
0.22242470045283
-0.0012434721357501
0.22253192336671
-0.001338218542016
0.22264840471397
-0.0014332993062969
0.22277439510564
-0.0015281986409512
0.22291030971564
-0.0016238789794263
0.22305638652943
-0.0017189632911483
0.22321315163657
-0.001815345367773
0.22338063980495
-0.0019096279133112
0.22355950994476
-0.002006136607569
0.2237493235714
-0.0020973890114456
0.22395115841601
-0.0021937987623148
0.22416369090513
-0.0022789006946935
0.2243891526205
-0.0023769937852281
0.22462438854766
-0.0024510015151186
0.22487427017632
-0.0025562714058933
0.22513156834352
-0.0026088814741511
-0.0027336854462768
0.22540696533465
0.20930959673778
-4.7258144093667e-05
0.20931778968543
-0.00014191352228076
0.2093318349391
-0.00023750774158639
0.20935198024784
-0.00033402516303567
0.20937839309046
-0.00043120578950015
0.20941122759335
-0.00052899475300078
0.20945064117753
-0.0006273801901402
0.20949681193324
-0.00072639095887064
0.20954995676993
-0.00082606732863597
0.20961035282442
-0.0009265507317585
0.20967831778104
-0.001027854925494
0.20975420104912
-0.0011300260926492
0.20983833123784
-0.0012327945814618
0.20993104529391
-0.0013361861792279
0.21003264000469
-0.0014398132406538
0.21014348598877
-0.0015441452784646
0.21026391159706
-0.0016486242377391
0.21039441491366
-0.001754382284716
0.21053532933937
-0.0018598777059105
0.21068727459803
-0.001967290615619
0.21085038869466
-0.002072741999426
0.21102542317332
-0.0021811710757929
0.21121203944359
-0.0022840052715164
0.2114114153846
-0.0023931746931513
0.21162229959193
-0.0024897848920469
0.21184709360036
-0.002601787783667
0.21208261479038
-0.002686522695318
0.21233408506421
-0.0028077416700248
0.21259401840594
-0.0028688148066178
-0.0030133906417923
0.21287372361156
0.19756175774218
-4.9579342453546e-05
0.19756894884296
-0.00014910460844695
0.19758139016553
-0.00024994904953812
0.19759935728193
-0.0003519922648955
0.19762303577634
-0.00045488426959558
0.19765259661976
-0.00055855558227366
0.1976882153737
-0.00066299893021179
0.19773009188292
-0.00076826745441328
0.1977784720723
-0.00087444750467312
0.19783367108012
-0.00098174972644409
0.19789605339086
-0.0010902372234688
0.19796602047257
-0.0011999931618126
0.19804395697659
-0.0013107310733243
0.19813025708717
-0.0014224862778763
0.19822528020668
-0.0015348363486136
0.1983294622407
-0.0016483273011298
0.1984432105045
-0.001762372490546
0.19856710273092
-0.0018782745003155
0.19870157446134
-0.0019943494258336
0.19884733120164
-0.0021130473455592
0.19900463580698
-0.0022300465946911
0.19917430887299
-0.0023508441318044
0.19935617337099
-0.0024658697597769
0.19955142482849
-0.0025884261409306
0.19975905805553
-0.0026974181095958
0.19998138087694
-0.0028241105955803
0.20021560786823
-0.0029207496773199
0.20046666572417
-0.0030587995168158
0.20072785955107
-0.0031300086247833
-0.0032957698389309
0.20101023875773
0.18647323842146
-5.1540381150082e-05
0.1864793759263
-0.00015524209974621
0.18649012105057
-0.00026069416022743
0.1865057738148
-0.00036764501559043
0.18652653516913
-0.00047564561056651
0.18655259013037
-0.00058461053026238
0.18658412932269
-0.00069453810952756
0.1866213710347
-0.00080550915354538
0.18666458620862
-0.00091766266599462
0.18671412333015
-0.001031286835524
0.18677038828266
-0.0011465021638544
0.18683382968779
-0.0012634345549854
0.18690488324485
-0.0013817846187526
0.18698399645046
-0.0015015994720235
0.18707158655691
-0.0016224264439337
0.18716815282947
-0.0017448935627261
0.18727417612402
-0.0018683957744552
0.18739031490664
-0.0019944132724387
0.18751709941027
-0.002121133919289
0.18765532893668
-0.0022512768619163
0.1878053794163
-0.0023800970645419
0.18796816456501
-0.0025136292708486
0.18814364546537
-0.002641350650731
0.18833308700296
-0.00277786766918
0.18853569554918
-0.0029000266467168
0.18875375363748
-0.0030421686748226
0.18898488868023
-0.0031518847112209
0.18923373848134
-0.0033076493092639
0.18949440109085
-0.0033906712260371
-0.0035786973463539
0.18977732860729
0.17600704028474
-5.3131894009316e-05
0.17601209339527
-0.00016029519761819
0.17602108374415
-0.00026968449638962
0.17603433176414
-0.00038089302287821
0.17605205056888
-0.00049336440275622
0.17607443593981
-0.00060699588871282
0.17610168996911
-0.00072179212656194
0.17613404534294
-0.00083786451520576
0.17617179315219
-0.00095541046332043
0.17621530953604
-0.0010748032075765
0.17626503518588
-0.001196227802161
0.17632145905806
-0.0013198584157529
0.17638506098848
-0.0014453865380551
0.17645633614105
-0.0015728746135963
0.1765357533668
-0.0017018436589794
0.17662387045438
-0.0018330106397261
0.17672123485661
-0.0019657601663965
0.17682858291162
-0.0021017613172897
0.17694653073822
-0.0022390817360247
0.17707597480399
-0.002380720917953
0.17721739099019
-0.0025215132413055
0.17737180623678
-0.0026680445081237
0.17753928965122
-0.0028088340561329
0.17772124110279
-0.0029598191118141
0.17791698336402
-0.003095768899266
0.17812896089649
-0.0032541461987051
0.17835494041051
-0.0033778642168807
0.17859970345899
-0.0035524123495793
0.1788575256641
-0.0036484934233696
-0.0038601579637713
0.17913898629003
0.16612824196241
-5.4351865234212e-05
0.16613220141432
-0.00016425463756716
0.16613941346428
-0.00027689653432305
0.16615021444184
-0.00039169398842069
0.16616482614518
-0.00050797609422176
0.16618345155181
-0.0006256212835419
0.16620630028875
-0.00074464085191264
0.16623361488327
-0.0008651790982362
0.16626570113225
-0.00098749670104809
0.16630295622772
-0.0011120582919185
0.16634584817463
-0.0012391197381933
0.16639489821527
-0.0013689084456228
0.16645062226679
-0.0015011105790555
0.16651355514805
-0.0016358074844366
0.166584209926
-0.0017724984267472
0.16666319541805
-0.0019119961217082
0.16675111796227
-0.0020536827008009
0.16684878363395
-0.0021994269792845
0.16695688712846
-0.0023471852211254
0.16707641526967
-0.0025002490499117
0.16720793939511
-0.0026530373577944
0.16735259686867
-0.002812701972895
0.16751056468289
-0.0029668018618716
0.16768337989186
-0.0031326343124641
0.16787048132557
-0.0032828703249407
0.16807449495321
-0.0034581598184681
0.16829329880221
-0.0035966680582455
0.16853192905171
-0.0037910425916595
0.16878471394431
-0.0039012783088912
-0.0041378361020361
0.16906239209037
0.15680388223267
-5.5205397255429e-05
0.15680675972294
-0.00016713211642892
0.15681220427694
-0.0002823410768615
0.15682056344344
-0.00040005314349887
0.15683206410717
-0.00051947674672859
0.15684691272594
-0.00064046989121592
0.15686532242231
-0.00076305053743899
0.15688754080142
-0.00088739746666583
0.15691388262687
-0.0010138385161066
0.1569447589902
-0.0011429346450203
0.15698065710513
-0.0012750178431511
0.1570221215259
-0.0014103728565509
0.15706969535523
-0.0015486843987681
0.15712394389206
-0.0016900560117449
0.15718541551726
-0.0018339700426475
0.15725476052155
-0.0019813411167811
0.15733263498274
-0.0021315571530063
0.15741990408467
-0.002286696072356
0.1575173313198
-0.0024446124476682
0.15762598358981
-0.0026089013115108
0.15774652032057
-0.0027735740804738
0.15788018284274
-0.002946364487209
0.15802725367895
-0.0031138726905752
0.15818940599638
-0.0032947866226254
0.15836619676414
-0.003459661085782
0.15856043102173
-0.0036523940693462
0.15877010641164
-0.0038063434417385
0.15900051524739
-0.0040214514212163
0.1592460686528
-0.0041468317083717
-0.0044093267515367
0.15951755930892
0.14800284966184
-5.5704118775029e-05
0.14800467621319
-0.00016895865664989
0.1480083961305
-0.00028606098303882
0.14801436334159
-0.00040602034362646
0.14802280629909
-0.00052791969357605
0.14803393126748
-0.00065159484922908
0.14804795093122
-0.00077707019117462
0.14806511319049
-0.00090455971624623
0.14808573605299
-0.0010344613693002
0.14811023708312
-0.0011674356661015
0.1481391144991
-0.0013038952504118
0.14817292664399
-0.0014441849929024
0.14821223466916
-0.0015879924156335
0.14825762413911
-0.0017354454735019
0.14830966940098
-0.0018860152965149
0.14836905083354
-0.0020407225414286
0.14843646371309
-0.0021989700248598
0.14851281937932
-0.0023630517310149
0.14859893898783
-0.0025307320488963
0.14869595604445
-0.0027059183610516
0.14880460749725
-0.0028822255265529
0.14892622906751
-0.0030679860510587
0.14906120001245
-0.0032488436295248
0.14921133082513
-0.0034449174296575
0.14937629341502
-0.0036246236704544
0.14955907991165
-0.0038351805610709
0.14975780110263
-0.0040050646281587
0.14997799108153
-0.0042416413957881
0.1502141110988
-0.0043829517214707
-0.0046721540394339
0.15047693839153
0.13969577848076
-5.5865329066965e-05
0.13969660195082
-0.00016978211520208
0.13969866824734
-0.00028812726811703
0.13970233318513
-0.00040968527033308
0.13970782328838
-0.00053340978629504
0.13971534102054
-0.0006591125713804
0.13972509508965
-0.00078682425088539
0.1397373291756
-0.0009167937933218
0.13975235916633
-0.0010494913517314
0.13977060149341
-0.0011856779852947
0.13979255741169
-0.0013258511612442
0.13981878904041
-0.0014704166144251
0.13984986704738
-0.0016190704157009
0.13988638618995
-0.0017719646092983
0.13992893830564
-0.0019285674056217
0.13997822043308
-0.0020900046623847
0.14003495731751
-0.0022557069030148
0.14010008942491
-0.0024281838322843
0.14017448494713
-0.0026051275652766
0.14025932669433
-0.0027907601026738
0.14035541806561
-0.0029783168926796
0.1404641756325
-0.0031767436131869
0.14058606034276
-0.0033707283355493
0.1407230129159
-0.003581869999049
0.14087480927166
-0.0037764200230153
0.14104464273348
-0.0040050140201512
0.14123076161803
-0.0041911835103982
0.14143896169907
-0.004449841474766
0.14166366280979
-0.0046076528301531
-0.004923843844498
0.14191535261751
0.13185494998138
-5.5710568707128e-05
0.13185483217073
-0.00016966429116594
0.13185533914598
-0.00028863422995315
0.1318568247884
-0.00041117089993391
0.13185951059253
-0.00053609557848577
0.13186359199383
-0.00066319396162553
0.13186927056553
-0.00079250281246972
0.13187678133099
-0.00092430454947894
0.13188643326402
-0.0010591432762608
0.13189863442072
-0.0011978791341149
0.13191388208482
-0.0013410988180163
0.13193273176686
-0.0014892662895029
0.13195575629607
-0.0016420949382771
0.13198354708146
-0.0017997553882372
0.13201670727631
-0.0019617275942267
0.13205593371738
-0.0021292310973354
0.13210197505576
-0.0023017482354841
0.13215577700227
-0.0024819857730638
0.13221825090794
-0.0026676014655597
0.13229059951508
-0.0028631087047602
0.13237369449122
-0.0030614118642787
0.13246900242505
-0.0032720515429972
0.13257707172883
-0.0034787976359846
0.1326999337939
-0.0037047320614405
0.13283746375703
-0.0039139499841958
0.13299299005555
-0.0041605403173858
0.13316499638648
-0.0043631898406059
0.13335938004594
-0.0046442251338014
0.13357131291841
-0.0048195857021304
-0.005162315943981
0.13380978501904
0.12445419953058
-5.5263744130218e-05
0.1244532113022
-0.00016867604471972
0.12445227169729
-0.00028769460652206
0.12445172726986
-0.0004106264546778
0.12445179137269
-0.00053615966469235
0.12445265102238
-0.00066405359595983
0.12445449875644
-0.00079435053247068
0.12445755651613
-0.00092736229622466
0.12446212113377
-0.0010637078819817
0.12446858476624
-0.0012043427554712
0.12447743447623
-0.0013499485175542
0.12448920963945
-0.0015010414427279
0.12450448060046
-0.0016573658896818
0.12452382258393
-0.0018190973623266
0.12454784750693
-0.0019857525080857
0.12457722976998
-0.0021586133514145
0.12461274318253
-0.0023372616393272
0.12465530085773
-0.0025245434398112
0.12470587143807
-0.0027181720378656
0.12476561894608
-0.0029228562052064
0.12483552388352
-0.0031313167948145
0.12491701954586
-0.0033535471991569
0.12501081746957
-0.0035725955544006
0.12511894343372
-0.0038128580212011
0.12524144454753
-0.0040364510946125
0.12538161658985
-0.0043007123572238
0.12553824083674
-0.0045198140858145
0.12571685897141
-0.0048228432672196
0.12591452065545
-0.0050172473848385
-0.0053863590028552
0.12613856371654
0.11746883228948
-5.4552231774684e-05
0.11746705113468
-0.00016689486328655
0.11746479163051
-0.00028543507470573
0.11746238589289
-0.00040822069006311
0.11746003562837
-0.00053380937455036
0.11745791968636
-0.0006619376298967
0.11745622074226
-0.00079265156584428
0.1174551454356
-0.00092628696838996
0.11745497476624
-0.0010635371926116
0.11745607754623
-0.0012054455163493
0.11745892234837
-0.0013527933013192
0.1174640226688
-0.0015061417452982
0.11747194208107
-0.0016652852844975
0.11748322946169
-0.0018303847257995
0.1174985069433
-0.0020010299728359
0.11751840450518
-0.0021785108966903
0.11754372923543
-0.0023625863533066
0.11757531137951
-0.0025561255680297
0.11761421129224
-0.0027570719352833
0.11766145554515
-0.0029701004435099
0.1177182338855
-0.0031880951214308
0.11778576310733
-0.0034210764083189
0.11786512011268
-0.0036519525482454
0.11795807382515
-0.0039058117234365
0.11806508969978
-0.0041434669602796
0.11818946139102
-0.0044250840407945
0.11832958233184
-0.0046599350200621
0.11849206318077
-0.0049853241103013
0.11867159047774
-0.0051967746759895
-0.0055972163678591
0.11888244785
0.11087554586555
-5.3613165364255e-05
0.11087306133258
-0.00016441029201038
0.11086962084869
-0.00028199455106011
0.11086553620647
-0.00040413600870582
0.11086099863892
-0.00052927176936431
0.11085617919494
-0.00065711814997924
0.11085124662752
-0.00078771896411418
0.11084639050345
-0.00092143081139644
0.110841874761
-0.0010590214184124
0.11083804103315
-0.0012016117576269
0.11083533319107
-0.0013500854290736
0.11083423363379
-0.0015050421583469
0.11083529241134
-0.0016663440328281
0.11083902457162
-0.0018341168571794
0.11084605750845
-0.0020080628811481
0.11085696082381
-0.0021894141838619
0.11087257811209
-0.0023782036139029
0.11089361578271
-0.0025771632115231
0.11092126628852
-0.0027847224147919
0.11095630893386
-0.0030051430635203
0.11100029457165
-0.0032320807352228
0.11105392823981
-0.0034747100539218
0.11111907498288
-0.0037170992704349
0.11119651553862
-0.0039832522599129
0.11128808712347
-0.0042350385276145
0.11139602270199
-0.004533019603471
0.11151968495791
-0.0047835972617402
0.11166694640078
-0.0051325855399909
0.11182447586728
-0.0053543041296493
-0.0057957092900361
0.11202296880462
0.10465235031917
-5.2497470876756e-05
0.10464928025237
-0.00016134017465728
0.10464480349765
-0.0002775177448034
0.10463922491365
-0.0003985573739699
0.10463273803356
-0.00052278484003621
0.10462550232488
-0.00064988239369526
0.10461766601157
-0.00077988260470858
0.10460940767678
-0.00091317243177278
0.10460096811456
-0.0010505818123187
0.10459265142073
-0.0011932950206747
0.10458486842684
-0.001342302392612
0.10457807398398
-0.0014982476733838
0.10457280579801
-0.0016610758051322
0.10456955383782
-0.0018308648556714
0.10456894107266
-0.0020074500750505
0.1045714705059
-0.0021919435766949
0.1045779942368
-0.0023847273049876
0.10458907587148
-0.0025882448072756
0.1046060338965
-0.0028016804019621
0.10462934566073
-0.0030284547914359
0.10466103945058
-0.0032637744905578
0.10470103441063
-0.0035147049816349
0.10475255082405
-0.0037686156536974
0.10481423509688
-0.0040449365048671
0.10489126523552
-0.0043120686405275
0.10498076228285
-0.0046225166273767
0.10508972217215
-0.0048925571296574
0.10521849407893
-0.00526135742695
0.10536458388152
-0.0055003939129171
-0.0059754622826504
0.10554433689718
0.098778444431867
-5.1223579703499e-05
0.098774921257369
-0.00015781694158813
0.098769520551683
-0.00027211698007152
0.098762616046988
-0.00039165281107988
0.098754419375622
-0.00051458811179717
0.098745071103559
-0.00064053406607194
0.098734648362565
-0.00076945980929773
0.098723366880391
-0.00090189089600057
0.098711439169981
-0.001038654048914
0.098699123883655
-0.0011809796817028
0.098686782892004
-0.0013299613486112
0.098674828236965
-0.0014862929661726
0.098663773160725
-0.001650020676989
0.098654098734707
-0.0018211903779848
0.098646421697396
-0.0019997729864957
0.098641207800029
-0.0021867296285484
0.098639273452029
-0.0023827929070036
0.098641076154697
-0.0025900474609691
0.098647941578234
-0.0028085457781212
0.098660133059799
-0.0030406462276518
0.098679969106914
-0.0032836104950252
0.098706749285301
-0.0035414851203095
0.098744908817185
-0.0038067751490362
0.098790865694131
-0.0040908933482251
0.09885407245916
-0.0043752753749206
0.09892360736413
-0.0046920515046164
0.099020266084225
-0.0049892158247544
0.099117727288299
-0.0053588186076847
0.099257397655539
-0.0056400642564913
0.099447278892383
-0.0061653434917266
0.39449069523178
0.0046565462103807
0.38999290092707
0.004497794319713
0.38565835248661
0.0043345484552327
0.38149142640872
0.0041669260926887
0.37749635829128
0.0039950681322734
0.37367724074513
0.0038191175611798
0.37003801567811
0.0036392250821668
0.36658246549935
0.0034555501941607
0.36331420617082
0.0032682593440819
0.36023668298593
0.003077523200729
0.35735316759483
0.0028835154071049
0.35466675506944
0.0026864125416934
0.35218036043991
0.002486394646004
0.34989671495179
0.0022836455049017
0.34781836223765
0.0020783527310847
0.34594765446822
0.0018707077866939
0.34428674846912
0.0016609060165184
0.34283760171286
0.0014491467740065
0.34160196831869
0.0012356334120634
0.34058139478332
0.0010205735536033
0.33977721557955
0.00080417922216454
0.33919054736214
0.00058666823615241
0.33882227903473
0.00036826834632144
0.33867303141503
0.00014924763899657
0.33874326284222
-7.0231407716848e-05
0.33903345112673
-0.00029018826463335
0.33954345667185
-0.00051000552506851
0.34027305606998
-0.00072959937767954
0.34122181352
-0.00094875742941402
0.34238906946706
-0.0011672559260904