/*--------------------------------*- C++ -*----------------------------------*\
| =========                 |                                                 |
| \\      /  F ield         | OpenFOAM: The Open Source CFD Toolbox           |
|  \\    /   O peration     | Version:  2112                                  |
|   \\  /    A nd           | Website:  www.openfoam.com                      |
|    \\/     M anipulation  |                                                 |
\*---------------------------------------------------------------------------*/
FoamFile
{
    version     2.0;
    format      ascii;
    arch        "LSB;label=32;scalar=64";
    class       volVectorField;
    location    "13.3";
    object      U;
}
// * * * * * * * * * * * * * * * * * * * * * * * * * * * * * * * * * * * * * //

dimensions      [0 1 -1 0 0 0 0];

internalField   nonuniform List<vector> 
22000
(
(1.0000010419364 -2.6173434440333e-05 0)
(1.0000269766398 -7.7740725314427e-05 0)
(1.0000764370994 -0.0001284891622971 0)
(1.0001502123693 -0.00017884149529887 0)
(1.0002486956198 -0.00022897382162905 0)
(1.0003718562149 -0.00027892392996485 0)
(1.0005194481975 -0.00032868619790718 0)
(1.0006912281639 -0.0003782114535171 0)
(1.0008869973276 -0.00042738532014617 0)
(1.0011065679136 -0.00047608198243544 0)
(1.0013497021373 -0.0005241640340893 0)
(1.0016161189949 -0.00057155604572125 0)
(1.0019054655862 -0.00061816525753844 0)
(1.0022173842247 -0.00066399950444623 0)
(1.0025514553267 -0.00070896326132105 0)
(1.0029073123046 -0.00075312985636003 0)
(1.0032844794686 -0.00079629298621354 0)
(1.0036825914244 -0.00083863032527901 0)
(1.0041010503573 -0.00087970369568048 0)
(1.0045395112416 -0.00092000256814497 0)
(1.0049971791411 -0.0009586245654004 0)
(1.0054738398596 -0.00099680911627777 0)
(1.0059683810466 -0.0010325614899966 0)
(1.0064809320072 -0.0010687989109721 0)
(1.0070097781525 -0.0011009555655437 0)
(1.007555777773 -0.001135799295779 0)
(1.0081160231819 -0.0011628483049429 0)
(1.0086928894164 -0.001197793318756 0)
(1.0092811216628 -0.0012165516547562 0)
(1.0098863440882 -0.0012554381829406 0)
(1.0000004860828 -7.6908494081585e-05 0)
(1.0000262955208 -0.00022864162099702 0)
(1.0000758454698 -0.00037820984542104 0)
(1.0001498837559 -0.00052677493050353 0)
(1.0002488684821 -0.00067479437631314 0)
(1.0003728496991 -0.00082235534836943 0)
(1.0005216343657 -0.00096943526777084 0)
(1.000695014457 -0.0011158887745942 0)
(1.000892805184 -0.0012613808635351 0)
(1.0011148454756 -0.0014055429021626 0)
(1.0013609072595 -0.0015479704291184 0)
(1.001630754267 -0.001688436659364 0)
(1.0019240320805 -0.0018266622644064 0)
(1.0022404483211 -0.0019626616234723 0)
(1.0025795426477 -0.0020961515927791 0)
(1.0029410605338 -0.0022273435687766 0)
(1.0033244106206 -0.0023556385757826 0)
(1.0037294544991 -0.002481550683936 0)
(1.0041553167768 -0.0026038055857196 0)
(1.0046021260323 -0.00272381059629 0)
(1.0050684418744 -0.0028389455762113 0)
(1.005555053104 -0.0029527741210105 0)
(1.0060593954701 -0.0030595346913811 0)
(1.0065837631671 -0.0031676125016658 0)
(1.0071232602601 -0.0032638793887328 0)
(1.0076834443181 -0.0033677497110049 0)
(1.00825452394 -0.0034491948662454 0)
(1.0088490845084 -0.0035530863518223 0)
(1.009446974608 -0.0036106974172556 0)
(1.0100763366257 -0.0037254542814534 0)
(1.0000005129555 -0.00012522620958074 0)
(1.0000270450018 -0.00037258647047129 0)
(1.0000779557094 -0.00061683971735227 0)
(1.0001539711565 -0.00085974588176041 0)
(1.0002555341345 -0.0011019502894874 0)
(1.0003827148778 -0.0013435554652369 0)
(1.0005353517391 -0.0015845104203972 0)
(1.0007132785762 -0.0018245803010658 0)
(1.0009163354879 -0.0020632337445418 0)
(1.0011444109191 -0.0022998946790148 0)
(1.001397301324 -0.0025339179097953 0)
(1.0016748489952 -0.0027649393472782 0)
(1.0019767051048 -0.00299248393881 0)
(1.002302687619 -0.0032165663393268 0)
(1.0026522771995 -0.0034366984501399 0)
(1.0030254049372 -0.0036532486039847 0)
(1.0034212979792 -0.0038652189392285 0)
(1.0038401966163 -0.0040735126696737 0)
(1.0042807766357 -0.0042759790171027 0)
(1.0047439635629 -0.0044750166890658 0)
(1.005227239582 -0.0046661470068224 0)
(1.0057330988032 -0.0048554072736507 0)
(1.0062564877302 -0.005032961069857 0)
(1.0068034428633 -0.0052130576860274 0)
(1.0073634856668 -0.0053733602728596 0)
(1.0079504728747 -0.0055468967831882 0)
(1.0085422376823 -0.0056826367025271 0)
(1.0091698450747 -0.0058568496835997 0)
(1.0097856451633 -0.005952816594297 0)
(1.0104597391839 -0.0061461155938367 0)
(1.0000005276783 -0.00017198353423177 0)
(1.0000277590151 -0.00051200014943752 0)
(1.0000801211175 -0.00084825474072979 0)
(1.0001584172326 -0.0011829913390232 0)
(1.0002631203922 -0.001516979723598 0)
(1.000394327522 -0.0018503258136686 0)
(1.0005518985077 -0.0021829473548134 0)
(1.0007357089498 -0.0025145346339094 0)
(1.0009456286092 -0.0028443978398913 0)
(1.0011816183967 -0.003171809789086 0)
(1.0014435134896 -0.0034959274319663 0)
(1.0017312720204 -0.0038162766021381 0)
(1.0020445563942 -0.0041321753242403 0)
(1.0023833460981 -0.0044436345020615 0)
(1.0027470413996 -0.0047499325187279 0)
(1.0031358439712 -0.0050516287681047 0)
(1.0035487265429 -0.0053473095057477 0)
(1.0039864779892 -0.0056383583609803 0)
(1.0044471383676 -0.0059216714097178 0)
(1.0049327820866 -0.0062007728333931 0)
(1.0054393576208 -0.0064690775078449 0)
(1.0059718077818 -0.0067353669265156 0)
(1.0065215274895 -0.0069851904064477 0)
(1.0070999125444 -0.0072393509116614 0)
(1.0076885198928 -0.007465178585972 0)
(1.0083130689197 -0.0077109628143682 0)
(1.0089337615375 -0.0079021804257653 0)
(1.0096080384065 -0.0081502196030582 0)
(1.0102491345456 -0.0082847451274059 0)
(1.0109869155178 -0.0085618083435644 0)
(1.0000005433746 -0.00021723951033377 0)
(1.0000284857254 -0.00064716179584066 0)
(1.00008236316 -0.0010730710195315 0)
(1.0001630909486 -0.0014975235496101 0)
(1.0002711975971 -0.0019213214026179 0)
(1.0004068239773 -0.0023445614786068 0)
(1.000569859988 -0.0027671341803472 0)
(1.0007602353456 -0.0031886770701108 0)
(1.0009778600411 -0.0036083876361097 0)
(1.0012227933824 -0.0040254540342617 0)
(1.0014949271734 -0.0044388846668608 0)
(1.0017943770816 -0.0048481275022323 0)
(1.0021208279693 -0.005252278698494 0)
(1.0024744768659 -0.0056513426785654 0)
(1.0028546292084 -0.0060443283764402 0)
(1.0032618468323 -0.0064320320195702 0)
(1.003694784629 -0.0068125978504758 0)
(1.0041549520716 -0.0071880080830691 0)
(1.0046395810863 -0.0075540988712085 0)
(1.0051522419118 -0.007915700774052 0)
(1.0056869202309 -0.008263792945926 0)
(1.0062517288425 -0.0086102729760639 0)
(1.0068335092407 -0.0089353577291916 0)
(1.0074505649305 -0.0092673380436635 0)
(1.0080742431758 -0.0095617024352017 0)
(1.0087455013378 -0.0098842184387706 0)
(1.0094019655316 -0.010133533440907 0)
(1.0101348493223 -0.010461153081816 0)
(1.0108073758439 -0.010635630097084 0)
(1.0116257259548 -0.011004641247089 0)
(1.0000005581345 -0.00026095845967459 0)
(1.0000291451596 -0.00077801190530433 0)
(1.0000844455284 -0.0012912842023647 0)
(1.00016750725 -0.0018034524599739 0)
(1.0002789286055 -0.0023152417863699 0)
(1.0004189109829 -0.0028267209741142 0)
(1.0005873886712 -0.0033377551899613 0)
(1.0007843641184 -0.0038479542457639 0)
(1.0010098024601 -0.0043564549619098 0)
(1.00126388989 -0.004862436618269 0)
(1.0015465955021 -0.0053648149250254 0)
(1.0018582368333 -0.0058629977037095 0)
(1.0021985370856 -0.0063558427224857 0)
(1.0025679705775 -0.006843347660063 0)
(1.002965740449 -0.0073242114860176 0)
(1.0033928613809 -0.0077995239762322 0)
(1.0038476171588 -0.0082669558919465 0)
(1.0043324101494 -0.0087292300775586 0)
(1.0048435090575 -0.0091809946861336 0)
(1.0053863190671 -0.0096286071185676 0)
(1.0059524674413 -0.010060219194732 0)
(1.0065539283369 -0.010491297748321 0)
(1.0071720568738 -0.010895869956946 0)
(1.0078335276464 -0.011310840162863 0)
(1.0084973881242 -0.011678049039338 0)
(1.0092229830747 -0.012083397335137 0)
(1.0099207848516 -0.01239471067507 0)
(1.0107226215595 -0.01280957825509 0)
(1.0114316929558 -0.013026491162021 0)
(1.012345714624 -0.01349800811421 0)
(1.0000005695009 -0.0003029971522378 0)
(1.0000296389989 -0.0009041504799467 0)
(1.0000860866431 -0.0015022854238416 0)
(1.0001711119256 -0.0020999948882607 0)
(1.0002853961747 -0.002697809373438 0)
(1.000429217422 -0.0032957486200656 0)
(1.0006025694237 -0.0038936553492096 0)
(1.0008055472389 -0.0044911406093739 0)
(1.001038187962 -0.0050873394422472 0)
(1.0013008347181 -0.0056815074863392 0)
(1.0015935569503 -0.006272531018235 0)
(1.001916920258 -0.0068598221540232 0)
(1.0022707062083 -0.0074419850094275 0)
(1.0026557286503 -0.0080190147356265 0)
(1.0030710879051 -0.0085892586012068 0)
(1.0035183459516 -0.0091541673911827 0)
(1.0039953735439 -0.0097109047374118 0)
(1.0045056362443 -0.010263096859124 0)
(1.0050443046335 -0.010804061638729 0)
(1.0056189456665 -0.01134193688797 0)
(1.0062184724194 -0.011861610469417 0)
(1.0068593728087 -0.012382635807849 0)
(1.0075166693785 -0.012871889908487 0)
(1.0082267635497 -0.013376160485622 0)
(1.0089345082209 -0.013821611938351 0)
(1.0097205169811 -0.014317254298895 0)
(1.0104639828174 -0.014695618462224 0)
(1.0113435331486 -0.015207036876579 0)
(1.0120933964975 -0.015469955029638 0)
(1.0131164713583 -0.016056550796551 0)
(1.0000005755953 -0.00034311754996643 0)
(1.0000298741159 -0.0010248859390738 0)
(1.0000870176943 -0.0017049616814953 0)
(1.0001733743008 -0.0023856385862424 0)
(1.0002897207946 -0.0030671304542947 0)
(1.0004364276179 -0.0037493879049146 0)
(1.0006135630115 -0.0044322364675856 0)
(1.0008213344092 -0.0051153219538452 0)
(1.0010598682593 -0.0057978429022742 0)
(1.0013296949491 -0.0064792247775569 0)
(1.0016310089602 -0.0071583946030899 0)
(1.0019646707589 -0.0078348200090699 0)
(1.0023305438092 -0.0085068393541084 0)
(1.002729844531 -0.0091744551214934 0)
(1.0031615767986 -0.0098356226247688 0)
(1.0036279438922 -0.010492231121946 0)
(1.0041263742911 -0.011140904109605 0)
(1.0046615613593 -0.011786351207846 0)
(1.0052274671988 -0.012420410318789 0)
(1.0058341276487 -0.013053279920636 0)
(1.0064674370527 -0.01366611880016 0)
(1.0071489953683 -0.014283132609484 0)
(1.0078467559599 -0.014863018806703 0)
(1.0086080666212 -0.015463819727525 0)
(1.0093619358578 -0.015993846046134 0)
(1.0102127870442 -0.016588409693349 0)
(1.0110049671434 -0.01703995819206 0)
(1.0119692778203 -0.017658679290214 0)
(1.0127633086226 -0.017972334315885 0)
(1.0139068990902 -0.018688380983186 0)
(1.0000005743228 -0.00038101882599236 0)
(1.0000297649742 -0.0011393305648623 0)
(1.0000869922625 -0.0018978582869357 0)
(1.0001738074223 -0.0026583758651515 0)
(1.0002910939527 -0.0034206559084863 0)
(1.000439328919 -0.0041845606389482 0)
(1.0006186692298 -0.004949905978396 0)
(1.0008294535309 -0.0057164101077458 0)
(1.0010719148857 -0.0064834058158014 0)
(1.0013468002644 -0.0072505883933988 0)
(1.0016544543905 -0.0080170019325907 0)
(1.0019960779974 -0.008782227032176 0)
(1.002371642429 -0.0095443291029969 0)
(1.0027828279718 -0.010303333942864 0)
(1.0032285550555 -0.011056769194713 0)
(1.0037117583778 -0.011807048540298 0)
(1.0042294089318 -0.012550226819877 0)
(1.0047875812587 -0.013292289718871 0)
(1.0053789478774 -0.014023446738357 0)
(1.0060162911255 -0.014756255281454 0)
(1.0066822449357 -0.015467672131147 0)
(1.007404046367 -0.016187148807735 0)
(1.0081419819801 -0.016864147822982 0)
(1.0089553852794 -0.017569387473852 0)
(1.0097560775669 -0.018191086497235 0)
(1.010674407968 -0.018894143467063 0)
(1.0115169961845 -0.019426014565883 0)
(1.0125711984412 -0.020164014194723 0)
(1.0134118466498 -0.020534372225118 0)
(1.0146852152355 -0.021395739387916 0)
(1.0000005647639 -0.0004163728071313 0)
(1.0000292378621 -0.0012465035990782 0)
(1.0000857918324 -0.0020793442597823 0)
(1.0001719800415 -0.0029159284411606 0)
(1.0002888027507 -0.0037554647710403 0)
(1.000436854292 -0.004597709117964 0)
(1.0006163911414 -0.005442477172546 0)
(1.0008278987867 -0.0062895995265283 0)
(1.0010717327483 -0.0071386176989978 0)
(1.0013488831898 -0.0079896008125194 0)
(1.0016598698309 -0.0088417916617009 0)
(1.0020062752518 -0.0096949463111535 0)
(1.0023882063199 -0.010546857168422 0)
(1.0028078632607 -0.011397594783452 0)
(1.003264102742 -0.012244232230888 0)
(1.0037606721483 -0.013089798423096 0)
(1.0042940857528 -0.01392976181253 0)
(1.0048719336533 -0.014771581279524 0)
(1.0054855529233 -0.01560370363747 0)
(1.0061507066831 -0.016441347088001 0)
(1.0068466044547 -0.017256813103066 0)
(1.0076065475598 -0.018085391444384 0)
(1.0083827259124 -0.018866281921768 0)
(1.009247276984 -0.019684286376049 0)
(1.0100938625071 -0.020405336248004 0)
(1.0110803524558 -0.021227153158886 0)
(1.0119735864315 -0.021847391613267 0)
(1.0131206681154 -0.022717600346415 0)
(1.0140093802631 -0.023151914791944 0)
(1.0154192847023 -0.024175606870287 0)
(1.0000005459398 -0.00044885288890066 0)
(1.0000282403819 -0.0013454248607533 0)
(1.0000832526511 -0.0022477705918766 0)
(1.0001675544036 -0.0031559657341726 0)
(1.0002822741371 -0.004068537785811 0)
(1.0004281329988 -0.0049851214280943 0)
(1.000605496524 -0.0059055444601816 0)
(1.0008150085794 -0.0068297917419454 0)
(1.0010571600813 -0.0077576908725689 0)
(1.0013332046079 -0.0086897893886073 0)
(1.001643859842 -0.0096256146416678 0)
(1.0019911235932 -0.010565162336483 0)
(1.0023752682263 -0.011505962112116 0)
(1.0027990584576 -0.012448152226347 0)
(1.0032613174152 -0.01338834106166 0)
(1.0037666669178 -0.014330258379952 0)
(1.0043111901698 -0.015268793943367 0)
(1.0049040905737 -0.016213060812585 0)
(1.005535376128 -0.017149651760497 0)
(1.0062239538604 -0.01809671432714 0)
(1.0069455519202 -0.019021517133974 0)
(1.0077398218842 -0.01996571145927 0)
(1.008550644188 -0.020857332744155 0)
(1.0094634912268 -0.021796547376825 0)
(1.0103533357361 -0.022624995059828 0)
(1.0114065581671 -0.023576236297759 0)
(1.0123491155378 -0.024293666110886 0)
(1.0135896910306 -0.025309642471824 0)
(1.0145268108777 -0.025816502090149 0)
(1.0160771543714 -0.027020231654487 0)
(1.000000516837 -0.0004781539149394 0)
(1.0000267355109 -0.0014351722120946 0)
(1.000079269968 -0.0024015731683648 0)
(1.0001603124355 -0.0033762609772042 0)
(1.0002711242736 -0.0043569705573878 0)
(1.0004125594535 -0.0053432021391249 0)
(1.0005851013329 -0.0063348100602404 0)
(1.0007895591754 -0.0073319748108829 0)
(1.00102657254 -0.008334889169736 0)
(1.0012976710719 -0.0093446810040724 0)
(1.0016037944172 -0.010361253439131 0)
(1.0019473726351 -0.011384903575122 0)
(1.0023288809764 -0.012412922914896 0)
(1.0027516659895 -0.01344553415867 0)
(1.0032145743193 -0.014478899692481 0)
(1.0037231135547 -0.01551751128114 0)
(1.0042730248211 -0.016555742479842 0)
(1.0048751245179 -0.017604479677369 0)
(1.0055182290338 -0.018648480220393 0)
(1.0062243659723 -0.019708961387674 0)
(1.0069659798237 -0.020747995845171 0)
(1.0077890209167 -0.021813864605791 0)
(1.0086292933441 -0.022822923953527 0)
(1.0095855870471 -0.0238915237399 0)
(1.0105143493979 -0.024835623665635 0)
(1.0116306087179 -0.02592691059955 0)
(1.0126195009601 -0.026751014066403 0)
(1.0139515722843 -0.027926487449443 0)
(1.014936227422 -0.028515873040369 0)
(1.0166279256475 -0.029917621901293 0)
(1.0000004773471 -0.00050401254250426 0)
(1.0000247072041 -0.0015149372057261 0)
(1.0000737906832 -0.0025393629227178 0)
(1.0001501350832 -0.0035748191359118 0)
(1.0002551346849 -0.0046181428956972 0)
(1.0003897776107 -0.0056686862587836 0)
(1.0005546726027 -0.0067263443786033 0)
(1.00075079425 -0.007791532134804 0)
(1.0009789412791 -0.008864885597007 0)
(1.0012409176881 -0.009948208645531 0)
(1.0015379122049 -0.011041874104958 0)
(1.0018727846059 -0.012146537978633 0)
(1.0022462656234 -0.013259294749746 0)
(1.0026622589078 -0.014380458764091 0)
(1.003119736244 -0.015505800662854 0)
(1.0036250131128 -0.01664059422194 0)
(1.0041736982967 -0.017778843694408 0)
(1.0047780195027 -0.018933208563478 0)
(1.0054260285381 -0.020086837894455 0)
(1.0061424064064 -0.021263865326012 0)
(1.0068971558266 -0.022421497920083 0)
(1.0077415353102 -0.023614208923657 0)
(1.0086048526119 -0.024747275236513 0)
(1.009597346991 -0.025952510891706 0)
(1.0105595477631 -0.027020878325621 0)
(1.0117322956603 -0.028262042396475 0)
(1.0127632675896 -0.029202997499148 0)
(1.0141816020229 -0.030551088459654 0)
(1.0152115593757 -0.03123428053576 0)
(1.0170421525426 -0.032851788681073 0)
(1.0000004276627 -0.00052622522480657 0)
(1.0000221569445 -0.001584083454687 0)
(1.0000668120471 -0.0026600227416739 0)
(1.0001370038157 -0.0037500084513105 0)
(1.0002342543055 -0.0048498819707026 0)
(1.0003596830232 -0.0059588336913981 0)
(1.000514026818 -0.0070768119333408 0)
(1.0006984211323 -0.008204502728832 0)
(1.0009138289709 -0.0093430582796087 0)
(1.0011623206884 -0.010495047991051 0)
(1.0014453508026 -0.011661403387619 0)
(1.0017661954101 -0.012843195973357 0)
(1.0021258823641 -0.014037368496855 0)
(1.0025288438434 -0.015244342758988 0)
(1.0029742638261 -0.016459555239419 0)
(1.0034691860405 -0.017689094985104 0)
(1.0040092780227 -0.018926737089119 0)
(1.0046079704193 -0.020186927240539 0)
(1.00525298599 -0.021451449707511 0)
(1.0059711139069 -0.022747169689822 0)
(1.0067309365068 -0.024026902396082 0)
(1.0075875951005 -0.025350617001776 0)
(1.0084664045808 -0.026613775064904 0)
(1.0094853155324 -0.027961529550993 0)
(1.0104751951068 -0.02916366269017 0)
(1.01169324678 -0.030561487038746 0)
(1.0127646086498 -0.031633654575345 0)
(1.0142547843126 -0.033160763811137 0)
(1.0153370084287 -0.033960209229576 0)
(1.0172919063111 -0.035802409215527 0)
(1.0000003681759 -0.00054465861457005 0)
(1.0000191037048 -0.0016421788320052 0)
(1.0000583802789 -0.0027627640512081 0)
(1.0001209966386 -0.0039006430818782 0)
(1.0002085928307 -0.0050505730353163 0)
(1.0003224136357 -0.0062115690944684 0)
(1.0004633203819 -0.0073836417026484 0)
(1.0006326023597 -0.0085677814396644 0)
(1.0008313812103 -0.009765720840513 0)
(1.001061984382 -0.010980878704798 0)
(1.001326130198 -0.012214823896644 0)
(1.0016275032256 -0.013469103327848 0)
(1.0019674346169 -0.014740545701188 0)
(1.00235087889 -0.016029715209813 0)
(1.0027772544766 -0.017331754254817 0)
(1.00325432952 -0.018653643088951 0)
(1.0037778738375 -0.019989006119639 0)
(1.0043625139384 -0.021354199655878 0)
(1.0049957263709 -0.02272971171313 0)
(1.0057063902819 -0.024145270723945 0)
(1.0064618171133 -0.02554928923749 0)
(1.007320978936 -0.027007408149764 0)
(1.0082054664717 -0.028405125089804 0)
(1.0092407675155 -0.029901311842388 0)
(1.0102487096327 -0.031244218796653 0)
(1.0115020270245 -0.032807335914183 0)
(1.0126054091496 -0.034021019698818 0)
(1.0141574537292 -0.035738143563084 0)
(1.0152858141419 -0.036667792268267 0)
(1.0173557570564 -0.038749634255979 0)
(1.0000002996711 -0.00055925400745797 0)
(1.0000155818389 -0.0016890100375187 0)
(1.0000485872635 -0.0028471543019521 0)
(1.0001022816577 -0.0040260255753573 0)
(1.0001784095002 -0.0052192183343741 0)
(1.000278331818 -0.0064255583798334 0)
(1.0004030257596 -0.0076451241391599 0)
(1.0005539226866 -0.0088792383477943 0)
(1.0007322897352 -0.010130269414682 0)
(1.0009406960014 -0.011402558133657 0)
(1.001181110079 -0.01269838074479 0)
(1.0014576097996 -0.014019814797629 0)
(1.0017718203099 -0.015363614149382 0)
(1.0021292066642 -0.016730522170791 0)
(1.0025294209115 -0.018115431706781 0)
(1.0029809500464 -0.019526287951311 0)
(1.003479681087 -0.020956649372537 0)
(1.0040414369571 -0.022424898764255 0)
(1.0046534827818 -0.023910315522054 0)
(1.0053467977778 -0.025445612153576 0)
(1.0060874937491 -0.026974839812097 0)
(1.0069383968983 -0.028569460660829 0)
(1.0078174977438 -0.030104967446912 0)
(1.0088578580555 -0.031754254025788 0)
(1.0098724473844 -0.033243788770816 0)
(1.011149590913 -0.034979952751995 0)
(1.0122737811229 -0.036343928394968 0)
(1.0138768462519 -0.038262531396341 0)
(1.0150413342896 -0.039334195650342 0)
(1.0172149681614 -0.041669548233491 0)
(1.00000022312 -0.00057002696959293 0)
(1.0000116394779 -0.0017245831831463 0)
(1.0000375636661 -0.0029131212983302 0)
(1.0000811039294 -0.0041259569126066 0)
(1.000144092791 -0.005355454672553 0)
(1.0002279947262 -0.0066002358984187 0)
(1.0003338902012 -0.0078604493109133 0)
(1.0004633362318 -0.00913777061607 0)
(1.0006177264827 -0.010435249866611 0)
(1.0007998489705 -0.011758209199764 0)
(1.0010118998399 -0.013109692419712 0)
(1.0012583247229 -0.014492355537598 0)
(1.0015410217141 -0.015902916877433 0)
(1.0018659428995 -0.017342335360181 0)
(1.0022329605918 -0.018805301835228 0)
(1.0026512598251 -0.02030079497172 0)
(1.003116843869 -0.02182239210135 0)
(1.0036467148386 -0.023390611227035 0)
(1.0042279472263 -0.024983619741537 0)
(1.0048936047517 -0.026637235035106 0)
(1.0056086604048 -0.028291214692742 0)
(1.0064397833843 -0.030023001966477 0)
(1.007301504408 -0.031698088056687 0)
(1.0083344276603 -0.033503696190755 0)
(1.0093429459191 -0.035144339934919 0)
(1.0106308550297 -0.037059911833739 0)
(1.0117629443062 -0.038581770295149 0)
(1.013404053125 -0.040712011838282 0)
(1.0145924792983 -0.041936548466868 0)
(1.016855235146 -0.044537208437423 0)
(1.0000001399355 -0.00057706370309285 0)
(1.0000073346272 -0.0017491139239942 0)
(1.0000254711334 -0.0029609380648092 0)
(1.0000577706993 -0.004200719330552 0)
(1.0001061351887 -0.0054595361666692 0)
(1.000172117575 -0.0067357887488412 0)
(1.0002568859366 -0.00802969507278 0)
(1.0003621015636 -0.0093432965953922 0)
(1.0004892612735 -0.010680360703039 0)
(1.0006413419506 -0.012047234361686 0)
(1.000820737693 -0.013447779455483 0)
(1.001032225787 -0.014885267679536 0)
(1.0012779477385 -0.016356423047551 0)
(1.0015643055404 -0.017862450879497 0)
(1.0018913689871 -0.019397892676481 0)
(1.0022689821673 -0.020972816563723 0)
(1.0026932531723 -0.02258090530142 0)
(1.003182317437 -0.024244901472627 0)
(1.0037230719295 -0.025941969712098 0)
(1.0043506123931 -0.027711141094354 0)
(1.0050288365284 -0.029487979892232 0)
(1.0058281831142 -0.0313560707158 0)
(1.0066599036479 -0.033170941697825 0)
(1.0076719943093 -0.035134482108216 0)
(1.0086607052562 -0.036929106528885 0)
(1.0099449648022 -0.039028891244015 0)
(1.0110706458083 -0.040714774921827 0)
(1.012735008733 -0.04306538598852 0)
(1.0139331714549 -0.044452333926273 0)
(1.0162674534513 -0.047327095899048 0)
(1.0000000519643 -0.00058051024441435 0)
(1.0000027326692 -0.0017630026261053 0)
(1.000012491318 -0.0029911917657342 0)
(1.0000326303918 -0.0042510368214055 0)
(1.0000651018072 -0.005532288471643 0)
(1.0001115283494 -0.0068331069125942 0)
(1.0001731485615 -0.0081537754179279 0)
(1.0002517020325 -0.0094967040028888 0)
(1.0003487641354 -0.010866404512422 0)
(1.0004674616602 -0.012270273485183 0)
(1.0006103535959 -0.013713034568883 0)
(1.0007824975708 -0.015198594777936 0)
(1.0009862477788 -0.01672373138708 0)
(1.0012283991031 -0.018289910843338 0)
(1.0015092010573 -0.019891593089836 0)
(1.0018390863601 -0.021539963319716 0)
(1.0022142676679 -0.023228914933134 0)
(1.0026539128622 -0.024983461767809 0)
(1.0031447819323 -0.026779906518223 0)
(1.0037238511056 -0.028660563103076 0)
(1.0043540998849 -0.030556945734904 0)
(1.0051094618163 -0.032558939408336 0)
(1.0058983286675 -0.034512135606472 0)
(1.0068755137551 -0.036633516802273 0)
(1.0078300340484 -0.038583157252666 0)
(1.0090949629192 -0.040870153610974 0)
(1.0101988376643 -0.042724535280494 0)
(1.0118700374641 -0.04530276350767 0)
(1.0130628800838 -0.046860305766777 0)
(1.0154464295666 -0.050015436944476 0)
(0.9999999591427 -0.00058056759484466 0)
(0.99999790321197 -0.0017667981029579 0)
(0.9999988144907 -0.0030047234600419 0)
(1.0000060492791 -0.0042780041583946 0)
(1.0000215925445 -0.0055750274016104 0)
(1.0000471146753 -0.0068936947064678 0)
(1.0000839084803 -0.0082343504596851 0)
(1.0001337580949 -0.0095997610457939 0)
(1.0001982957175 -0.010995200045382 0)
(1.0002807455766 -0.012429114004426 0)
(1.0003838072877 -0.013907135105471 0)
(1.0005127430473 -0.015433802147249 0)
(1.0006701064365 -0.017006015002675 0)
(1.0008629833742 -0.018625476246385 0)
(1.0010918236149 -0.020286668113537 0)
(1.0013675010611 -0.022001846358157 0)
(1.0016864087001 -0.023765282022262 0)
(1.0020685050556 -0.025604202501065 0)
(1.0025006075207 -0.027494291058917 0)
(1.0030211509579 -0.029481109108907 0)
(1.0035926874541 -0.031492368501062 0)
(1.0042918398709 -0.03362437135643 0)
(1.0050252810454 -0.035712809652288 0)
(1.0059529656681 -0.037990245761783 0)
(1.006859084748 -0.040094016586538 0)
(1.0080873450919 -0.042569193485145 0)
(1.0091540749369 -0.044594153610715 0)
(1.0108116644244 -0.0474053640064 0)
(1.0119858629579 -0.049138740538141 0)
(1.0143890450573 -0.052579847645502 0)
(0.99999986345953 -0.00057746967339855 0)
(0.99999289891897 -0.0017611738996055 0)
(0.99998461454545 -0.0030025702182524 0)
(0.99997838099235 -0.0042829835808712 0)
(0.99997619936874 -0.0055894180227139 0)
(0.99997976052517 -0.0069194968072092 0)
(0.99999040642299 -0.0082736257437405 0)
(1.0000099287659 -0.009654903518091 0)
(1.0000400019807 -0.011069373331782 0)
(1.0000838630762 -0.012526492150723 0)
(1.0001443442452 -0.014032845434808 0)
(1.0002267929169 -0.01559356271276 0)
(1.0003340095216 -0.017205785840625 0)
(1.0004731905949 -0.018871369528041 0)
(1.0006451199789 -0.020585013573328 0)
(1.0008607942966 -0.02235984644018 0)
(1.0011170604613 -0.024190839710598 0)
(1.0014341041656 -0.026107095643811 0)
(1.001799355447 -0.02808422705087 0)
(1.0022517603527 -0.030170574216287 0)
(1.0027545480056 -0.032290845544792 0)
(1.0033854296892 -0.034547213847217 0)
(1.0040514851681 -0.036766374487215 0)
(1.0049148489879 -0.039195995060578 0)
(1.0057592514115 -0.041451413643443 0)
(1.0069323314781 -0.044113103247036 0)
(1.0079481842236 -0.046309083732183 0)
(1.0095671615759 -0.049352018073982 0)
(1.0107111842499 -0.05127165338136 0)
(1.0131028370519 -0.054988867864698 0)
(0.9999997634194 -0.00057149642140896 0)
(0.99998779115387 -0.0017469005709013 0)
(0.99997008040487 -0.0029859188939732 0)
(0.99994999559894 -0.0042675215367339 0)
(0.99992953181937 -0.0055773351691769 0)
(0.99991036120166 -0.0069126934110093 0)
(0.99989387921413 -0.0082740556684231 0)
(0.99988185221927 -0.0096648215322437 0)
(0.99987601072447 -0.011091823896254 0)
(0.99987949849973 -0.012565473451372 0)
(0.99989528903154 -0.014093352285652 0)
(0.99992861425759 -0.015681079349073 0)
(0.9999826401657 -0.017326188774367 0)
(1.0000643691617 -0.019030498841859 0)
(1.0001752627325 -0.02078925356376 0)
(1.0003258485681 -0.022616031874249 0)
(1.0005141234696 -0.02450715538729 0)
(1.0007593115839 -0.026492753231044 0)
(1.0010508415788 -0.028549627435202 0)
(1.0014259849716 -0.030727357483266 0)
(1.0018513464144 -0.032949859882192 0)
(1.0024019360737 -0.03532266709782 0)
(1.0029901016735 -0.037666792135006 0)
(1.0037737823714 -0.040241610969188 0)
(1.0045447982473 -0.04264471269381 0)
(1.0056434101588 -0.045487188398113 0)
(1.0065982212821 -0.047854997199761 0)
(1.0081505690308 -0.051118655301898 0)
(1.0092596237304 -0.053238083223926 0)
(1.0116034924489 -0.05721061141036 0)
(0.99999965870427 -0.00056302975469798 0)
(0.99998272555846 -0.0017250373399812 0)
(0.99995554484833 -0.0029563366080454 0)
(0.99992143428585 -0.004233583291767 0)
(0.99988236735659 -0.0055410945450597 0)
(0.99983998991794 -0.0068759349536971 0)
(0.99979576411515 -0.0082385802675097 0)
(0.99975137199466 -0.0096326819964358 0)
(0.99970860145116 -0.011065849993286 0)
(0.99967041328325 -0.012549386917314 0)
(0.9996399696185 -0.014091954263305 0)
(0.99962218093186 -0.015699605183426 0)
(0.99962074445048 -0.017370471524941 0)
(0.99964206442651 -0.01910607224901 0)
(0.99968875592995 -0.020902558409948 0)
(0.99976999471643 -0.022773249054239 0)
(0.99988606990212 -0.024716745335723 0)
(1.0000532979926 -0.026762761332635 0)
(1.0002657482968 -0.028891580265511 0)
(1.0005548838803 -0.031151017605912 0)
(1.0008964693203 -0.033468902560291 0)
(1.0013543332623 -0.035948079699206 0)
(1.0018577735541 -0.03841209115976 0)
(1.0025444209587 -0.041122408724165 0)
(1.0032350618161 -0.043668785252846 0)
(1.0042366382271 -0.04668756414608 0)
(1.0051247135505 -0.049216687996415 0)
(1.0065861622282 -0.052720049433193 0)
(1.0076572056377 -0.055000935126679 0)
(1.0099156728068 -0.059279135214498 0)
(0.99999955274246 -0.00055265106028073 0)
(0.9999779549779 -0.0016972936884266 0)
(0.99994155365208 -0.0029164115237092 0)
(0.99989347771906 -0.0041844992245472 0)
(0.99983566980502 -0.0054846803136913 0)
(0.99976984039127 -0.0068137916629735 0)
(0.9996975735968 -0.0081722165261624 0)
(0.99962042782743 -0.0095639539781421 0)
(0.99954020727202 -0.01099735006839 0)
(0.9994595710162 -0.012484455912783 0)
(0.99938179914365 -0.014035025347872 0)
(0.99931137098066 -0.015655553659375 0)
(0.99925265372762 -0.017345082856833 0)
(0.99921130420455 -0.019104810994753 0)
(0.9991914494537 -0.020932300475624 0)
(0.99920025275898 -0.022839947805001 0)
(0.99924110228091 -0.024829611437176 0)
(0.99932554814712 -0.026928744578034 0)
(0.99945479111993 -0.029124025348867 0)
(0.99964998027193 -0.031457154204756 0)
(0.99990306769955 -0.033867472212626 0)
(1.00025551382 -0.036444602437697 0)
(1.000671124884 -0.039031604304456 0)
(1.001240132698 -0.041868788391813 0)
(1.0018530127926 -0.044569996011926 0)
(1.0027215167487 -0.047760508505239 0)
(1.0035570091649 -0.050460354471858 0)
(1.004868966551 -0.054239561783162 0)
(1.0059531761147 -0.056639636119326 0)
(1.0080664267321 -0.061495703394841 0)
(0.99999943375324 -0.00054144058614325 0)
(0.99997326808999 -0.0016670853345989 0)
(0.99992791896541 -0.0028728951211849 0)
(0.9998659480453 -0.0041310935383422 0)
(0.99978933046646 -0.0054233145827375 0)
(0.99970005933436 -0.0067462329096601 0)
(0.99959972442917 -0.0080997370556267 0)
(0.99948964095324 -0.0094882757833979 0)
(0.99937176303092 -0.010920997192173 0)
(0.99924846389312 -0.012410849328421 0)
(0.99912289810417 -0.013968879647837 0)
(0.9989990307994 -0.015601993088253 0)
(0.99888160751749 -0.017310126254293 0)
(0.99877572239922 -0.019094086303934 0)
(0.99868684065154 -0.020953341019625 0)
(0.99862058559336 -0.022899394572084 0)
(0.99858298492704 -0.024938777447556 0)
(0.9985811622728 -0.027095752703904 0)