/*--------------------------------*- C++ -*----------------------------------*\
| =========                 |                                                 |
| \\      /  F ield         | OpenFOAM: The Open Source CFD Toolbox           |
|  \\    /   O peration     | Version:  2112                                  |
|   \\  /    A nd           | Website:  www.openfoam.com                      |
|    \\/     M anipulation  |                                                 |
\*---------------------------------------------------------------------------*/
FoamFile
{
    version     2.0;
    format      ascii;
    arch        "LSB;label=32;scalar=64";
    class       surfaceScalarField;
    location    "6.9";
    object      phi;
}
// * * * * * * * * * * * * * * * * * * * * * * * * * * * * * * * * * * * * * //

dimensions      [0 3 -1 0 0 0 0];

oriented        oriented;

internalField   nonuniform List<scalar> 
43645
(
0.39512365082241
-4.7778204897172e-06
0.39513794088021
-1.4290132307011e-05
0.39516167522203
-2.373442246612e-05
0.39519484706583
-3.3171927141134e-05
0.39523743741539
-4.2590433282209e-05
0.39528936991886
-5.1932586330437e-05
0.39535050286563
-6.1133028049445e-05
0.39542067505687
-7.0172270676104e-05
0.39549978681054
-7.9111831027259e-05
0.39558788123102
-8.809449578534e-05
0.39568516573529
-9.7284577418565e-05
0.39579199116045
-0.00010682549625053
0.39590877100694
-0.00011677991547403
0.39603593594383
-0.00012716500390861
0.39617385477184
-0.00013791889305928
0.39632288051289
-0.00014902580434406
0.39648329559832
-0.00016041514699012
0.39665548121996
-0.0001721856817241
0.3968397688934
-0.00018428773211757
0.39703674352152
-0.00019697468567117
0.39724679007287
-0.00021004660786556
0.39747070421397
-0.00022391419687718
0.39770863313174
-0.00023792897288652
0.39796151340701
-0.00025288033003414
0.39822876484017
-0.00026725148763078
0.39851165422836
-0.00028288944265954
0.3988082136379
-0.00029655946403413
0.39912083856293
-0.00031262497910296
0.39944500821064
-0.00032416970097395
-0.00034105876455812
0.39978606692084
0.37294703395705
-9.2571511337908e-06
0.3729604893349
-2.7745634463101e-05
0.37298300125139
-4.6246465607349e-05
0.37301455196331
-6.4722765561052e-05
0.37305510889386
-8.3147488712451e-05
0.37310458604983
-0.00010140986490231
0.37316283356885
-0.00011938066700111
0.37322968030704
-0.00013701912608606
0.37330501340818
-0.00015444504650556
0.37338886001398
-0.00017194121311016
0.37348141016238
-0.00018983483442495
0.3735829969779
-0.00020841241758485
0.37369401665931
-0.00022779969986138
0.37381488280908
-0.00024803125402329
0.37394594778335
-0.00026898396505541
0.37408754794481
-0.00029062606120217
0.37423995075278
-0.00031281804807692
0.37440352222116
-0.00033575724132957
0.37457858376911
-0.00035934936948081
0.3747657088168
-0.00038409982136319
0.37496528275674
-0.00040962063448931
0.37517809436835
-0.00043672589428703
0.37540431077773
-0.00046414546725816
0.37564486279164
-0.00049343242854472
0.37589922604618
-0.0005216148264196
0.37616864792589
-0.00055231140668498
0.37645128606692
-0.00057919768942737
0.37674946429367
-0.00061080328947155
0.37705893388147
-0.00063363936992032
-0.0006669962238551
0.37738487125707
0.35201532294953
-1.3682696389179e-05
0.35202856849406
-4.0991307499662e-05
0.352050602755
-6.8280855603903e-05
0.35208140647828
-9.5526616471975e-05
0.35212094312086
-0.00012268425636974
0.35216911605301
-0.0001495829191963
0.35222576055254
-0.00017602528542159
0.35229068822862
-0.00020194691786417
0.35236376653816
-0.0002275234683691
0.35244500130525
-0.00025317608927098
0.3525345603288
-0.000279393963651
0.35263275592316
-0.0003066081144655
0.35273996432303
-0.00033500819900832
0.35285658176221
-0.00036464878956937
0.35298294239394
-0.00039534469024363
0.35311936699863
-0.00042705075687386
0.35326610367386
-0.00045955481186152
0.3534235034434
-0.00049315709750902
0.35359186522596
-0.00052771123686134
0.3537717503383
-0.00056398501724955
0.35396352057283
-0.00060139095137587
0.35416796573058
-0.00064117113377797
0.35438523560785
-0.00068141542571817
0.35461629128561
-0.00072448818748062
0.35486060094661
-0.00076592456862455
0.35511948377494
-0.00081119431676406
0.35539108719102
-0.00085080118775585
0.35567785098695
-0.00089756716745616
0.35597547579778
-0.00093126426058413
-0.00098078212907039
0.35628926161982
0.33225841941365
-1.8058259104213e-05
0.33227151290993
-5.408492004709e-05
0.33229325067588
-9.0018738393908e-05
0.33232358929681
-0.00012586535305148
0.33236247300403
-0.00016156807699532
0.33240978549888
-0.00019689552491398
0.33246533968132
-0.0002315795758472
0.33252892241789
-0.00026552975960348
0.33260037482867
-0.00029897598127752
0.33267967717892
-0.00033247853873296
0.33276697334174
-0.00036669022261068
0.33286255553872
-0.00040219040473039
0.33296678152887
-0.00043923427948533
0.33308003259645
-0.00047789994483292
0.33320262636054
-0.00051793853936576
0.33333487102101
-0.00055929550013765
0.33347699703986
-0.00060168091128038
0.33362934510169
-0.00064550523820101
0.33379219329847
-0.00069055951082909
0.33396609753566
-0.00073788933048093
0.33415139598875
-0.00078668947941789
0.33434888876993
-0.00083866398936138
0.33455870482632
-0.000891231555972
0.33478185051471
-0.00094763394973026
0.33501777878312
-0.0010018529108658
0.33526790923582
-0.0010613248437656
0.33553036808995
-0.0011132601165683
0.33580777280169
-0.0011749719535742
0.33609576761308
-0.0012192591441928
-0.0012849715959693
0.33639995700452
0.31361040210296
-2.2403080118084e-05
0.31362339987164
-6.7082792796616e-05
0.31364494074636
-0.00011155971724388
0.3136749611375
-0.00015588584686852
0.31371338579457
-0.0001999928343836
0.3137600765831
-0.00024358641114143
0.3138148207603
-0.00028632384784107
0.31387737625008
-0.00032808534132804
0.31394755328798
-0.00036915310806654
0.31402530302279
-0.00041022835953147
0.31411074355789
-0.00045213084064056
0.31420414723997
-0.00049559416694767
0.31430585441457
-0.00054094153134487
0.31441623272578
-0.00058827833079647
0.31453558300255
-0.00063728888837683
0.3146641999327
-0.00068791250047111
0.31480229357516
-0.0007397746219211
0.3149501928994
-0.00079340462914554
0.3151081532552
-0.00084851993191227
0.31527672748682
-0.00090646362653499
0.31545623185013
-0.00096619390636532
0.31564748457552
-0.0010299167781449
0.31585059888525
-0.0010943459288858
0.31606663899632
-0.0011636741243189
0.31629504954971
-0.0012302635281069
0.31653736635363
-0.0013036417123484
0.31679170120873
-0.0013675950370755
0.3170608642679
-0.0014441350783106
0.31734044144472
-0.0014988363849807
-0.0015808731656085
0.31763634294675
0.29600902162905
-2.6722939284701e-05
0.29602194199326
-8.0003252426277e-05
0.29604331693836
-0.00013293475766856
0.29607306498548
-0.00018563398797272
0.29611109294124
-0.00023802088200129
0.29615724082536
-0.00028973438483899
0.29621126899561
-0.00034035210510846
0.29627290458845
-0.00038972101869092
0.29634192505822
-0.00043817365965313
0.29641825110301
-0.00048655448357044
0.29650197448412
-0.00053585429826852
0.29659334798501
-0.00058696774185131
0.29669269514687
-0.00064028876460399
0.2968003707212
-0.00069595397426807
0.29691665896792
-0.00075357720192768
0.29704184114654
-0.00081309474402797
0.2971761064886
-0.00087404002705113
0.29731977211751
-0.00093707031972552
0.29747307061844
-0.0010018184931451
0.29763655222021
-0.0010699452877539
0.29781051288932
-0.0011401546340732
0.29799578991704
-0.0012151938641369
0.2981924853348
-0.0012910414045649
0.2984017208943
-0.0013729097418879
0.29862294257118
-0.0014514852631527
0.29885779660553
-0.0015384958054092
0.29910439906724
-0.0016141975579451
0.29936573366064
-0.0017054697307518
0.29963736403468
-0.001770466816414
-0.001868966907463
0.29992545771571
0.27939552161573
-3.1010113731472e-05
0.27940834310478
-9.2824824609179e-05
0.2794295186683
-0.00015411040400223
0.27945895083124
-0.00021506623238218
0.27949653041115
-0.00027560054137273
0.27954207728597
-0.00033528133700687
0.27959532625911
-0.00039360115321477
0.27965597474542
-0.00045036957768091
0.27972376830621
-0.00050596729060831
0.27979859809656
-0.00056138434174621
0.2798805305099
-0.00061778677692268
0.27996979976615
-0.00067623706114582
0.28006671343125
-0.00073720249038301
0.28017161386581
-0.00080085446746767
0.2802847689684
-0.00086673236109439
0.28040644619459
-0.00093477202513186
0.28053681366055
-0.0010044075462798
0.28067617541758
-0.0010764321288298
0.28082474123761
-0.001150384364103
0.28098305647787
-0.0012282605782596
0.28115139838409
-0.00130849658988
0.28133061904636
-0.0013944145758348
0.28152081522142
-0.0014812376288713
0.28172315742161
-0.0015752519916195
0.28193710817164
-0.0016654360629726
0.28216440476103
-0.0017657924452609
0.28240320119465
-0.0018529940425971
0.28265661386046
-0.0019588824476752
0.28292025192521
-0.0020341049310619
-0.0021491773547839
0.28320046231918
0.2637144452386
-3.5245972654607e-05
0.26372711328147
-0.00010549294165746
0.26374800321645
-0.00017500041284012
0.26377700430296
-0.00024406739161648
0.26381399429296
-0.0003125906024404
0.26385877598495
-0.00038006309834636
0.2639110617593
-0.0004458869949534
0.26397052230974
-0.00050983019365534
0.26403687407451
-0.00057231911880352
0.26410998098708
-0.00063449131581642
0.26418988583669
-0.00069769168588486
0.26427680542516
-0.00076315670705109
0.26437103220223
-0.0008314293228385
0.26447289648084
-0.00090271879971005
0.26458265032158
-0.00097648625363457
0.26470054704406
-0.0010526687979314
0.26482673425164
-0.0011305948026738
0.26496150150279
-0.0012111994276831
0.2651050368162
-0.0012939197240859
0.26525787706832
-0.0013811008762348
0.26542028372323
-0.0014709032899244
0.26559311598295
-0.0015672468803763
0.26577647379099
-0.0016645954813719
0.26597156096423
-0.0017703392093508
0.2661778773771
-0.0018717525203234
0.26639722057113
-0.0019851356840866
0.26662782719588
-0.0020836007123688
0.26687288531099
-0.0022039406075936
0.26712813621267
-0.0022893558762405
-0.0024210334015915
0.26739999221293
0.24891345044463
-3.9403787542985e-05
0.24892588626909
-0.0001179288296311
0.24894636576599
-0.00019547997291397
0.2489747681473
-0.00027246983514115
0.24901096154355
-0.00034878405947533
0.24905473544584
-0.00042383706000121
0.24910578403591
-0.00049693564274531
0.24916375559195
-0.00056780180586238
0.24922834161498
-0.00063690519624959
0.24929938222695
-0.00070553198058788
0.24937689934761
-0.00077520885754972
0.24946109412673
-0.00084735153559905
0.24955224521397
-0.00092258045775843
0.24965067145783
-0.0010011450898031
0.24975661027651
-0.0010824251169903
0.24987030090322
-0.0011663594680934
0.24999187221809
-0.0012521661597221
0.25012159791097
-0.0013409251618055
0.25025964670213
-0.0014319685555517
0.25040654237669
-0.0015279965905107
0.25056253516805
-0.0016268961204108
0.25072848088005
-0.0017331926312422
0.25090449377056
-0.0018406084104913
0.25109179007639
-0.0019576355538371
0.25128993247055
-0.0020698949531501
0.25150073828997
-0.0021959415424749
0.25172257961661
-0.0023054420781878
0.25195863976304
-0.0024400007930013
0.25220489216927
-0.0025356083203762
-0.0026838194443115
0.25246767817121
0.23494313531237
-4.3451592562218e-05
0.23495524419723
-0.00013003776998489
0.23497516285089
-0.0002153986818258
0.23500276373517
-0.00030007077394405
0.23503790897436
-0.00038392935208744
0.23508037893691
-0.00046630707492412
0.23512985461614
-0.00054641137309648
0.23518596714056
-0.00062391438024293
0.23524838844796
-0.0006993265522517
0.23531693915855
-0.00077408273854922
0.2353916238695
-0.00084989361444748
0.23547263007395
-0.00092835778475255
0.23556022440193
-0.0010101748290254
0.23565471514741
-0.0010956358773977
0.23575632683856
-0.0011840368489498
0.23586528514977
-0.0012753178190813
0.23598170322669
-0.0013685842753102
0.23610583775276
-0.0014650597257086
0.23623784235246
-0.0015639731922165
0.23637822260763
-0.0016683768820551
0.23652722401572
-0.001775897564249
0.23668568689482
-0.0018916555457342
0.23685375351661
-0.0020086750673084
0.23703262777991
-0.0021365098520222
0.23722196444903
-0.0022592316569826
0.2374235541586
-0.0023975312867902
0.23763596203237
-0.0025178499866663
0.23786228136516
-0.0026663201600858
0.23809882359313
-0.0027721505815325
-0.0029367083091197
0.23835171242229
0.22175687295195
-4.735479944367e-05
0.22176855194412
-0.0001417168095797
0.2217877460924
-0.00023459287735871
0.22181432407947
-0.0003266488077419
0.22184814551569
-0.00041775083420559
0.22188898602829
-0.00050714763265621
0.22193651877086
-0.00059394415985637
0.22199036360579
-0.00067775925853947
0.2220501788786
-0.00075914186740022
0.22211577054424
-0.00083967444563694
0.22218712988267
-0.00092125299323388
0.22226443283258
-0.0010056607740859
0.22234793617313
-0.0010936782079127
0.22243793850825
-0.0011856382499461
0.22253465402951
-0.0012807524066044
0.22263829588957
-0.0013789597147168
0.22274896546624
-0.0014792538866507
0.22286690197123
-0.0015829962646938
0.22299224981574
-0.0016893210699865
0.22312549119846
-0.0018016182975271
0.22326687567847
-0.001917282076478
0.22341721531092
-0.0020419952100708
0.22357669626791
-0.0021681560558475
0.22374648394288
-0.0023062975583713
0.22392635716816
-0.002439104913462
0.22411803056195
-0.0025892047117414
0.22432032169108
-0.0027201411468755
0.22453614690756
-0.0028821454071729
0.22476226047027
-0.002998264173857
-0.0031788700454132
0.22500442217469
0.2093106558076
-5.1078696012256e-05
0.20932180107367
-0.00015286211687715
0.20934010501648
-0.00025289686134061
0.2093654352281
-0.00035197906021535
0.20939765206219
-0.00044996770857886
0.2094365306733
-0.00054602628358053
0.20948174166361
-0.00063915518934624
0.20953289971381
-0.00072891734739087
0.20958965556868
-0.00081589776022246
0.20965180563802
-0.00090182455232608
0.20971933181507
-0.00098877920686027
0.20979240066084
-0.0010787296557869
0.20987126138562
-0.0011725389677989
0.20995620367903
-0.0012705805778022
0.21004743457446
-0.0013719833356713
0.21014515586038
-0.0014766810336078
0.21024946221596
-0.0015835602744692
0.21036057559619
-0.0016941096765612
0.21047863820139
-0.0018073837061767
0.21060410437375
-0.0019270845003699
0.2107372385376
-0.0020504162702866
0.2108788117925
-0.0021835684945364
0.21102907208765
-0.0023184163801647
0.21118912081589
-0.0024663463155043
0.21135889360254
-0.0026088777287232
0.21153998095851
-0.0027702920961305
0.2117315112408
-0.0029116714573845
0.21193614088167
-0.0030867750756872
0.21215116392529
-0.0032132872441382
-0.0034095465522339
0.21238184040343
0.19756294778175
-5.4589981480903e-05
0.19757346156061
-0.0001633759315414
0.19759071775752
-0.00027015309412936
0.19761458553729
-0.00037584687570777
0.19764492887205
-0.00048031107871102
0.19768152631105
-0.00058262375769708
0.19772405084881
-0.00068167976182101
0.19777211782365
-0.00077698435664844
0.1978253761214
-0.00086915609195305
0.19788361757696
-0.00096006604151187
0.19794681824581
-0.001051979908833
0.19801513743604
-0.0011470488787192
0.19808881870569
-0.001246220269583
0.19816814362306
-0.0013499055268459
0.19825331542652
-0.0014571551702069
0.19834452558272
-0.0015678912203917
0.1984418680166
-0.0016809027383349
0.19854554790229
-0.0017977895917272
0.19865571321042
-0.0019175490432377
0.19877278702866
-0.0020441583470557
0.19889706046028
-0.002174689729857
0.19902925213477
-0.0023157601965573
0.19916969107509
-0.0024588553476305
0.19931939138402
-0.0026160466512216
0.19947847745474
-0.002767963825947
0.1996483724774
-0.0029401871450177
0.19982857035987
-0.0030918693658603
0.20002139367166
-0.0032795984128888
0.20022476280503
-0.0034166564020384
-0.0036281040202383
0.2004433202466
0.18647454640591
-5.7859047182502e-05
0.18648434137396
-0.00017317093139966
0.1865004083653
-0.00028622011746309
0.18652262046589
-0.00039805900828635
0.18655084764559
-0.00050853829020506
0.18658487507478
-0.00061665121857693
0.18662438246044
-0.00072118717895644
0.18666899088842
-0.00082159281597177
0.18671835258883
-0.00091851782345072
0.18677225919887
-0.0010139726824713
0.18683068409296
-0.0011104048335333
0.18689378095284
-0.001210145768975
0.18696178912482
-0.0013142284715723
0.18703498268918
-0.0014230991209137
0.18711356404866
-0.0015357365589731
0.18719771545987
-0.0016520426605043
0.18728753620162
-0.0017707235085126
0.1873832150843
-0.0018934685023734
0.18748491461873
-0.0020192486051316
0.18759302405987
-0.0021522678151448
0.18770787325728
-0.0022895389537195
0.18783011921468
-0.0024380061798972
0.18796019119359
-0.0025889273520278
0.18809899606563
-0.0027548515483011
0.18824687723259
-0.0029158450175934
0.18840505471147
-0.0030983646482027
0.18857343639412
-0.003260251072581
0.18875394944443
-0.0034601114866594
0.18894521552997
-0.0036079225102829
-0.0038340508376084
0.18915116232281
0.17600845092602
-6.0861240010558e-05
0.17601745381291
-0.0001821738470754
0.17603221269675
-0.0003009790303673
0.17605260624192
-0.00041845258258957
0.17607851211172
-0.00053444418902742
0.17610972461661
-0.0006478637524614
0.17614593379036
-0.00075739638154497
0.1761867707033
-0.0008624297576965
0.17623189533351
-0.00096364248226055
0.17628110247916
-0.0010631798566397
0.17633436535861
-0.0011636677413102
0.17639183296643
-0.0012676134050035
0.17645374143824
-0.0013761369713684
0.17652035745429
-0.0014897151647814
0.1765918850228
-0.0016072641550106
0.17666849809029
-0.0017286557552371
0.17675030681352
-0.0018525322586081
0.17683748423228
-0.0019806459475699
0.17693021578684
-0.0021119801856428
0.17702885506217
-0.0022509071158801
0.17713378236217
-0.0023944662785817
0.17724558631091
-0.002549810152881
0.17736481392928
-0.0027081549941176
0.17749224997041
-0.0028822876125582
0.17762848398814
-0.0030520790580455
0.17777450525213
-0.0032443859344641
0.17793067729901
-0.0034164231414953
0.17809848446011
-0.0036279186692298
0.17827731319032
-0.0037867512614178
-0.0040270355537103
0.17847029788363
0.16612973838048
-6.357766525225e-05
0.16613789261273
-0.00019032810606838
0.16615125135811
-0.00031433780276477
0.1661696999753
-0.00043690122685219
0.16619312484338
-0.0005578690840263
0.16622133108817
-0.00067607002407624
0.16625402181859
-0.00079008713857004
0.1662908414326
-0.00089924939815172
0.16633146121355
-0.0010042622894158
0.16637568159422
-0.0011074002633912
0.16642347726219
-0.001211463435159
0.16647499242007
-0.001319128588676
0.1665304603813
-0.0014316049582344
0.16659013982351
-0.0015493946325181
0.1666542381307
-0.0016713624875508
0.16672292148903
-0.0017973391386902
0.16679631531842
-0.0019259261127951
0.16687457773295
-0.0020589083864869
0.16695792405574
-0.0021953265323291
0.16704667128762
-0.0023396543710152
0.16714126025349
-0.0024890552670705
0.16724220708721
-0.0026507570084507
0.1673501911486
-0.0028161390766847
0.16746586521564
-0.0029979617000095
0.1675900873986
-0.0031763012608951
0.16772359747219
-0.0033778960273828
0.16786724966199
-0.003560075350396
0.16802205256206
-0.0037827215879474
0.16818821268975
-0.003952911407525
-0.0042068274680871
0.16836800458372
0.15680544659546
-6.599559416637e-05
0.15681271368985
-0.00019759522587911
0.15682460958133
-0.00032623371981435
0.15684102685534
-0.00045331852625713
0.15686186104625
-0.00057870329994265
0.15688692908725
-0.0007011380896892
0.15691594898319
-0.00081910705858729
0.15694858077118
-0.00093188120976977
0.15698450956257
-0.0010401911039151
0.15702354303516
-0.0011464337587239
0.15706565818133
-0.0012535786037128
0.15711099361464
-0.0013644640441771
0.15715977919515
-0.0014803905607577
0.15721226438973
-0.0016018798490055
0.15726866056007
-0.001727758679651
0.15732912649004
-0.0018578050902429
0.15739380535877
-0.0019906050028169
0.15746284167383
-0.0021279447224226
0.15753648496467
-0.0022689698435117
0.15761501631133
-0.0024181857372648
0.15769894354179
-0.0025729825163591
0.15778870979992
-0.002740523284425
0.15788513660759
-0.0029125659013237
0.15798874143821
-0.003101566546602
0.15810066611106
-0.0032882259490113
0.1582213908911
-0.0034986208219801
0.15835228447873
-0.0036909689523727
0.15849386180887
-0.003924298932167
0.15864719989961
-0.0041062495125997
-0.0043732911236712
0.15881366353863
0.14800446395804
-6.8108645215969e-05
0.14801082399533
-0.0002039552882884
0.14802122415111
-0.00033663390054761
0.14803556436088
-0.00046765876028872
0.14805374930354
-0.00059688826587225
0.14807560817046
-0.00072299697886483
0.14810087507014
-0.0008443739793538
0.14812922719375
-0.00096023335337555
0.14816036489378
-0.0010713288228792
0.14819410366582
-0.0011801725488584
0.1482304224997
-0.0012898974549906
0.14826945321096
-0.0014034947723732
0.14831142056118
-0.001522357927591
0.14835656358023
-0.0016470228845017
0.14840509634664
-0.001776291462351
0.14845717114041
-0.0019098799001109
0.14851294843173
-0.002046382309974
0.1485725618612
-0.002187558167275
0.1486362945848
-0.0023327025818936
0.1487043961228
-0.0024862872891785
0.14877743987916
-0.0026460262856658
0.1488558026368
-0.0028188860537769
0.14894044691257
-0.0029972101876478
0.14903176448226
-0.0031928841255106
0.14913118265619
-0.003387644131198
0.1492389322021
-0.003606370375229
0.14935689782762
-0.0038089345849944
0.14948509446579
-0.0040524955774412
0.1496255030255
-0.0042466580803597
-0.0045263496565318
0.14977856154777
0.13969742496495
-6.991637450038e-05
0.13970287584496
-0.0002094061955233
0.13971177650827
-0.00034553459062264
0.13972403386685
-0.00047991614405518
0.13973956098319
-0.00061241540534961
0.13975819905709
-0.00074163507376216
0.13977969904029
-0.00086587398132858
0.13980375646552
-0.0009842907953149
0.1398300879116
-0.0010976602837651
0.13985851661692
-0.0012086012674322
0.13988902195932
-0.0013204028094004
0.13992172701702
-0.0014361998412548
0.13995684828672
-0.0015574792079129
0.13999461356538
-0.0016847881734594
0.14003523644916
-0.0018169143562208
0.14007886498159
-0.0019535084424124
0.1401256725253
-0.0020931898632681
0.14017578811442
-0.0022376737654726
0.14022951929336
-0.0023864337692223
0.14028709708609
-0.0025438650892545
0.14034914295163
-0.0027080721573445
0.1404159910704
-0.0028857341771205
0.1404887157805
-0.003069934900777
0.14056762233034
-0.0032717906766165
0.14065438413395
-0.0034744059346844
0.14074904922888
-0.0037010354687915
0.14085398038245
-0.003913865736817
0.14096873346734
-0.0041672486608663
0.14109616093903
-0.0043740855523446
-0.004665911180346
0.14123572245958
0.13185661179448
-7.142346883123e-05
0.1318611672928
-0.00021396172899053
0.13186859097794
-0.0003529583107184
0.13187879607491
-0.00049012127337002
0.1318917030485
-0.00062532240775851
0.13190716454678
-0.00075709659717359
0.13192494861265
-0.00088365806866119
0.13194476937139
-0.0010041115721722
0.13196635980225
-0.0011192507297748
0.13198955012787
-0.0012317916058188
0.13201431812569
-0.0013451708181196
0.13204077584169
-0.0014626575668708
0.1320691276359
-0.0015858310108786
0.13209958920301
-0.0017152497488267
0.13213236921154
-0.0018496943726864
0.13216761493242
-0.0019887541709291
0.13220550408829
-0.0021310790264247
0.13224617183346
-0.0022783415173024
0.13228992940122
-0.0024301913427829
0.13233701591365
-0.0025909516061843
0.13238805732778
-0.0027591135744312
0.13244340383407
-0.00294108068433
0.13250415742739
-0.0031306884929269
0.13257064848394
-0.0033382817296289
0.13264463533807
-0.0035483927832398
0.13272618753177
-0.0037825876550796
0.13281793932852
-0.0040056175253627
0.13291930095935
-0.0042686102838525
0.13303386559045
-0.0044886501780437
-0.0047918259560903
0.13315978036807
0.12445586052841
-7.2637700953065e-05
0.1244595473181
-0.00021764857286204
0.12446554040106
-0.00035895144930479
0.12447375586385
-0.00049833678871101
0.12448411928781
-0.00063568587933772
0.1244964950683
-0.00076947241991977
0.12451067019935
-0.00089783323675289
0.12452637859593
-0.0010198200011247
0.12454336947714
-0.001136241639347
0.12456147675475
-0.0012498989086167
0.12458067244024
-0.0013643665263629
0.12460105281548
-0.0014830379631575
0.12462280689636
-0.001607585111663
0.12464613687824
-0.0017385797498819
0.12467124486191
-0.0018748023750268
0.12469828011254
-0.0020157894397669
0.12472741749326
-0.0021602164247906
0.12475880793259
-0.0023097319734178
0.12479274060897
-0.0024641240347418
0.12482949531009
-0.002627706321148
0.12486963521114
-0.0027992534871716
0.12491362157943
-0.0029850670615775
0.12496242643579
-0.0031794933553101
0.1250166531903
-0.003392508486879
0.12507776118581
-0.0036095007784332
0.12514638294357
-0.0038512094096755
0.12522454006324
-0.0040837746401775
0.12531265583617
-0.0043567260518084
0.12541421607916
-0.0045902104185329
-0.0049047352090089
0.12552712533026
0.11747047588974
-7.3569881288577e-05
0.1174733285436
-0.00022050131570138
0.11747795723921
-0.00036358023761026
0.11748427399035
-0.00050465362966177
0.11749220598225
-0.00064361795526452
0.1175016279625
-0.00077889447763147
0.11751234590605
-0.00090855125137061
0.11752411647465
-0.0010315906351745
0.11753670876682
-0.001148833992259
0.11754995905238
-0.0012631492512305
0.11756382908853
-0.001378236616779
0.11757839025034
-0.0014975991772468
0.11759381156506
-0.0016230064772586
0.1176102752509
-0.001755043485623
0.11762798002319
-0.0018925071964459
0.11764707376188
-0.0020348832268104
0.11766773344257
-0.0021808761529087
0.11769012120582
-0.0023321197827525
0.11771449920554
-0.0024885020787501
0.1177411934349
-0.0026544005922578
0.11777066379189
-0.0028287238827928
0.11780354657962
-0.0030179498840373
0.11784051797485
-0.0032164647810795
0.11788276219082
-0.0034347527287621
0.1179308734407
-0.0036576120496955
0.11798721310922
-0.0039075490951226
0.11805103333258
-0.0041475948770707
0.11812695694136
-0.0044326496725651
0.1182123810162
-0.0046756345066892
-0.0050085424929596
0.11831618828116
0.11087715918124
-7.4244274188082e-05
0.11087922787532
-0.00022257014657586
0.11088257401702
-0.00036692652164254
0.11088709691593
-0.00050917666807537
0.11089273043203
-0.00064925160458384
0.1108993653412
-0.00078552951281303
0.11090682587843
-0.0009160119077722
0.11091488896154
-0.0010396538315512
0.11092333963161
-0.0011572847708071
0.1109320121997
-0.0012718219240888
0.11094085553295
-0.0013870800520349
0.1109499124481
-0.0015066561923415
0.11095933438842
-0.0016324285160187
0.1109692789592
-0.0017649881536228
0.11097994995018
-0.0019031782835462
0.11099147951858
-0.0020464128901478
0.1110040638608
-0.0021934605885658
0.11101783949642
-0.0023458955097814
0.11103308240201
-0.0025037450729525
0.11105009277344
-0.0026714110485402
0.11106931331491
-0.0028479445043956
0.11109143886868
-0.0030400755123402
0.11111693743591
-0.0032419634167541
0.11114749728717
-0.0034653126419998
0.11118263977027
-0.0036927545881874
0.11122732438885
-0.0039522337622186
0.11127616203681
-0.0041964325674944
0.11134345777851
-0.004499945452483
0.11140636835824
-0.0047385451237813
-0.0051082040541456
0.11150602987561
0.10465391796543
-7.469642915688e-05
0.10465530233742
-0.0002239547060883
0.1046574726476
-0.00036909702291842
0.10466031790677
-0.00051202211484737
0.10466378096356
-0.00065271484257669
0.1046677752265
-0.00078952394999435
0.10467218013598
-0.00092041698502992
0.10467681548258
-0.0010442893406419
0.10468146392785
-0.0011619333743829
0.10468592721052
-0.0012762853619339
0.10469011824987
-0.0013912712441721
0.10469403763992
-0.0015105757333701
0.1046978214796
-0.0016362125051766
0.10470161498742
-0.0017687818095525
0.10470565296085
-0.0019072164036788
0.10471005519834
-0.0020508152726345
0.10471506608901
-0.0021984716220619
0.10472074451933
-0.0023515740798607
0.10472744517011
-0.0025104458593167
0.10473528638225
-0.0026792523905674
0.10474492240102
-0.0028575806460819
0.10475669723201
-0.0030518504580148
0.10477154772839
-0.0032568140192123
0.10479042301855
-0.0034841880292595
0.10481359092497
-0.0037159225823267
0.10484487598491
-0.0039835188998605
0.10487987990902
-0.004231436559669
0.10493588083307
-0.0045559464370949
0.10498527677828
-0.0047879411255197
-0.0051970785121715
0.10507415117107
0.098779914213945
-7.4892571321141e-05
0.098780735229032
-0.00022477594205151
0.0987818286525
-0.00037019066872913
0.098783161416145
-0.00051335509700626
0.098784693765329
-0.00065424740462649
0.098786262064719
-0.00079109245647139
0.098787803732112
-0.00092195885458146
0.098789202719377
-0.0010456885263023
0.098790301134215
-0.0011630319849726
0.098790900445535
-0.0012768848672012
0.098790857409416
-0.0013912284007487
0.09879009534126
-0.0015098138569469
0.098788694669299
-0.0016348120240247
0.098786770131106
-0.0017668574611666
0.098784580235602
-0.001905026696649
0.09878225470997
-0.0020484899336779
0.098780105589911
-0.0021963226859473
0.098778133404859
-0.0023496020747134
0.09877679675323
-0.0025091093816017
0.098775961339956
-0.0026784171430306
0.098776574612878
-0.0028581940743996
0.098778324003929
-0.0030535999927376
0.098783283246105
-0.003261773392745
0.098790443017193
-0.0034913479191229
0.098804279381093
-0.0037297590518994
0.098820724524325
-0.0039999641344285
0.098849021307438
-0.0042597334203663
0.098878458230155
-0.0045853834271402
0.098925224418651
-0.0048347073777335
0.099037763524958
-0.0053096176913516
0.3952132227241
0.0045728441420195
0.39080310607015
0.0044101166003866
0.38655989712342
0.0042432088934712
0.38248767810756
0.004072218962235
0.37859040238222
0.003897275671153
0.37487190127768
0.0037185010495025
0.3713358834277
0.0035360177941697
0.36798593115393
0.00334995221703
0.36482549776092
0.0031604333355338
0.36185790504974
0.0029675926528593
0.35908634119074
0.0027715638000806
0.35651385630377
0.0025724848273515
0.35414335623415
0.0023705000095904
0.35197759264853
0.0021657635250688
0.35001915151273
0.0019584410750662
0.34827043947277
0.0017487119789101
0.34673366999224
0.0015367694195062
0.34541084968226
0.0013228202488442
0.34430376528826
0.0011070843331008
0.34341397359537
0.00088979163205946
0.34274279032896
0.00067118320595678
0.34229128071145
0.0004515095572379
0.34206022339737
0.00023105725427669
0.34204967044608
1.0552891726341e-05
0.34226108653182
-0.00021141614480188
0.34269405448484
-0.00043296801186208
0.34334841845994
-0.00065436403344339
0.34422381064163
-0.0008753922398311
0.34531960172615
-0.0010957911421978
0.34663489519864
-0.0013152935299806
0.34816852955901
-0.0015336344173721