/*--------------------------------*- C++ -*----------------------------------*\
| =========                 |                                                 |
| \\      /  F ield         | OpenFOAM: The Open Source CFD Toolbox           |
|  \\    /   O peration     | Version:  2112                                  |
|   \\  /    A nd           | Website:  www.openfoam.com                      |
|    \\/     M anipulation  |                                                 |
\*---------------------------------------------------------------------------*/
FoamFile
{
    version     2.0;
    format      ascii;
    arch        "LSB;label=32;scalar=64";
    class       volVectorField;
    location    "7.1";
    object      U;
}
// * * * * * * * * * * * * * * * * * * * * * * * * * * * * * * * * * * * * * //

dimensions      [0 1 -1 0 0 0 0];

internalField   nonuniform List<vector> 
22000
(
(1.0000009630232 -2.4477087336464e-05 0)
(1.0000253047354 -7.3579066184125e-05 0)
(1.0000722985342 -0.00012275788604844 0)
(1.0001430112645 -0.00017178695385816 0)
(1.0002378651729 -0.00022063378163336 0)
(1.0003568058956 -0.00026930947816805 0)
(1.0004995441661 -0.00031768492335364 0)
(1.0006657330724 -0.00036549329365638 0)
(1.0008549625494 -0.00041246965592036 0)
(1.0010667883593 -0.00045861731560029 0)
(1.0013008332829 -0.00050428013085118 0)
(1.0015570114139 -0.00055016008380451 0)
(1.0018355847834 -0.00059697057009987 0)
(1.0021372237141 -0.00064540435963158 0)
(1.0024627793412 -0.00069568204850712 0)
(1.0028132782784 -0.0007480133219492 0)
(1.0031895740217 -0.00080198365830095 0)
(1.003592589086 -0.00085780764762036 0)
(1.0040229241878 -0.00091481948704329 0)
(1.0044815362617 -0.00097406223610088 0)
(1.0049690273248 -0.0010344551037461 0)
(1.0054868389196 -0.0010984330305503 0)
(1.0060356862595 -0.0011631200576929 0)
(1.0066176193561 -0.0012332575131282 0)
(1.0072329357553 -0.0013015225244212 0)
(1.0078840784121 -0.0013779139703925 0)
(1.0085699383079 -0.0014459017553057 0)
(1.0092934037413 -0.001528000421133 0)
(1.0100508456559 -0.0015884682291914 0)
(1.0108466276944 -0.001677931346653 0)
(1.0000004536023 -7.2124781270865e-05 0)
(1.0000248545099 -0.00021688514205947 0)
(1.0000722425891 -0.00036205727147549 0)
(1.0001436007438 -0.00050690262247915 0)
(1.0002393796451 -0.00065125991561594 0)
(1.0003595796441 -0.0007951287347195 0)
(1.0005039298702 -0.00093810011111341 0)
(1.0006720735269 -0.0010793448850194 0)
(1.0008635429432 -0.0012180311765677 0)
(1.0010778449628 -0.0013541311187947 0)
(1.001314525139 -0.0014886570761072 0)
(1.0015734812309 -0.0016237121607331 0)
(1.0018549104705 -0.0017614571030204 0)
(1.0021595360143 -0.0019039814857312 0)
(1.0024881377371 -0.0020519703862395 0)
(1.0028418755772 -0.0022060316403541 0)
(1.0032214482217 -0.002364940155916 0)
(1.0036280224273 -0.002529279873477 0)
(1.0040618626215 -0.002697128185457 0)
(1.0045244113695 -0.0028715167770205 0)
(1.0050156107197 -0.0030494285175487 0)
(1.005537900731 -0.0032379385776254 0)
(1.0060906962721 -0.0034289294636244 0)
(1.0066780509182 -0.0036359887692618 0)
(1.0072976263346 -0.0038382741150112 0)
(1.0079558476438 -0.0040641528182005 0)
(1.008646193374 -0.0042666261357672 0)
(1.0093795850927 -0.0045093176333184 0)
(1.0101412212888 -0.0046910721842881 0)
(1.0109520536351 -0.0049545692293353 0)
(1.0000005073195 -0.00011809209129908 0)
(1.0000259666336 -0.00035499295023998 0)
(1.0000752589799 -0.00059276595253106 0)
(1.0001493195496 -0.00083012468493446 0)
(1.0002485427145 -0.001066700497258 0)
(1.0003729028207 -0.0013024340290177 0)
(1.0005221020652 -0.0015366089533902 0)
(1.0006957619047 -0.0017678107428138 0)
(1.000893349986 -0.0019946101418819 0)
(1.001114326003 -0.0022169166222839 0)
(1.0013581341916 -0.0024363814279261 0)
(1.0016246488861 -0.0026564986337947 0)
(1.0019139637983 -0.0028808730672578 0)
(1.0022268663921 -0.0031130089588319 0)
(1.0025640146903 -0.0033540576380533 0)
(1.0029267485372 -0.0036050458939279 0)
(1.0033155277296 -0.0038639180619643 0)
(1.0037318698958 -0.0041316529719196 0)
(1.0041755363628 -0.0044050306995744 0)
(1.004648673186 -0.0046891323805617 0)
(1.0051502103873 -0.0049789444423592 0)
(1.0056840409917 -0.0052863156650806 0)
(1.0062475359554 -0.0055977885157557 0)
(1.0068477668327 -0.005936051195051 0)
(1.0074781508699 -0.006266557737392 0)
(1.0081514430852 -0.0066364865985437 0)
(1.0088520698543 -0.0069679893676631 0)
(1.0096045367287 -0.0073665521484702 0)
(1.0103743158448 -0.0076647819719447 0)
(1.0112123848137 -0.0080988059593281 0)
(1.000000561754 -0.0001634780140247 0)
(1.0000272379486 -0.0004909146689983 0)
(1.0000788239429 -0.00081961754334274 0)
(1.0001562934504 -0.0011477642913516 0)
(1.0002600102265 -0.0014747349598318 0)
(1.0003898998479 -0.0018003856418049 0)
(1.0005455927382 -0.0021236765362118 0)
(1.000726656885 -0.0024425982901431 0)
(1.0009324623853 -0.0027551120020076 0)
(1.0011624039496 -0.0030610538675212 0)
(1.0014157887129 -0.0033626928846209 0)
(1.0016924639695 -0.0036649070405789 0)
(1.0019923854235 -0.0039727309696762 0)
(1.0023164309398 -0.0042911028413218 0)
(1.0026650914321 -0.004621631903208 0)
(1.0030399513036 -0.0049658067481956 0)
(1.0034411466496 -0.0053207127520292 0)
(1.0038706724856 -0.0056877888197216 0)
(1.0043276167937 -0.0060624338067317 0)
(1.0048150767482 -0.0064518777647436 0)
(1.0053306299548 -0.0068489316349801 0)
(1.0058801182243 -0.0072704169300972 0)
(1.006458176397 -0.0076972412581035 0)
(1.0070759054333 -0.0081616335645428 0)
(1.0077210320057 -0.0086148709566154 0)
(1.0084147971987 -0.0091238006892934 0)
(1.0091294536015 -0.0095788497523289 0)
(1.0099078676828 -0.010128895811693 0)
(1.0106888218708 -0.010538524297179 0)
(1.0115642448681 -0.011140122250663 0)
(1.0000006289609 -0.00020855374748784 0)
(1.0000287049806 -0.00062545882784483 0)
(1.0000829307725 -0.0010440369546643 0)
(1.0001643393427 -0.001461900224757 0)
(1.0002732737398 -0.0018781028933212 0)
(1.0004096152524 -0.0022923825958655 0)
(1.0005729165612 -0.0027033484486941 0)
(1.0007626864213 -0.0031083626635233 0)
(1.0009781771639 -0.0035047327282081 0)
(1.001218704345 -0.0038921899403937 0)
(1.0014834046418 -0.0042735982192181 0)
(1.0017720903133 -0.0046552366503702 0)
(1.0020845458613 -0.0050435867965081 0)
(1.0024217595753 -0.0054450751953237 0)
(1.0027840197947 -0.0058617716363963 0)
(1.0031732072476 -0.0062956765797655 0)
(1.0035890657089 -0.0067429640055533 0)
(1.0040341570004 -0.0072055993883113 0)
(1.004506756478 -0.0076774903080672 0)
(1.0050110829684 -0.008168156096438 0)
(1.0055431013591 -0.0086680406430428 0)
(1.0061109546448 -0.009199229772398 0)
(1.0067060389331 -0.0097366676401795 0)
(1.0073442363106 -0.010322695843444 0)
(1.0080065218049 -0.010893830654267 0)
(1.0087242751027 -0.011537635255759 0)
(1.0094551649131 -0.012111696017073 0)
(1.0102642312206 -0.012810151768476 0)
(1.0110578250263 -0.013327315464846 0)
(1.0119779907369 -0.014095361786098 0)
(1.0000007063393 -0.00025345256928937 0)
(1.0000302881742 -0.00075899396308723 0)
(1.0000873511808 -0.0012666723190833 0)
(1.0001730014944 -0.0017734968380645 0)
(1.0002875676457 -0.002278102643385 0)
(1.0004308924974 -0.0027800638802889 0)
(1.0006024494235 -0.0032776044741192 0)
(1.0008016862314 -0.0037674192652155 0)
(1.0010277230069 -0.0042461121415816 0)
(1.0012797869841 -0.0047132755496241 0)
(1.0015568202586 -0.00517234745328 0)
(1.0018585963763 -0.0056310347035045 0)
(1.0021847055256 -0.006097292296539 0)
(1.0025362619188 -0.0065791008343157 0)
(1.0029133266181 -0.0070789951380022 0)
(1.0033181117679 -0.0075995396847095 0)
(1.0037499253527 -0.0081359350167681 0)
(1.0042119529959 -0.0086907369524138 0)
(1.0047015761053 -0.0092562405168774 0)
(1.0052242345924 -0.0098443951176013 0)
(1.0057741340379 -0.010443082630979 0)
(1.0063619154202 -0.011079944841339 0)
(1.0069754506602 -0.011723646432998 0)
(1.0076358325518 -0.012427197224672 0)
(1.0083166411028 -0.013111816881159 0)
(1.0090604400523 -0.013886770904779 0)
(1.0098086815716 -0.014575805649918 0)
(1.0106513004613 -0.015420044696807 0)
(1.011457893431 -0.016041480596973 0)
(1.0124278914189 -0.016975364597324 0)
(1.0000007912818 -0.0002981599938824 0)
(1.0000318926771 -0.00089145547900382 0)
(1.0000918167265 -0.0014874391800804 0)
(1.000181755569 -0.0020824807622273 0)
(1.0003020290915 -0.0026746979524232 0)
(1.000452448482 -0.0032634545510727 0)
(1.0006324106862 -0.0038465531950561 0)
(1.0008413066615 -0.0044199788391433 0)
(1.001078118995 -0.0049795764016442 0)
(1.0013419851657 -0.005524760940299 0)
(1.0016316402944 -0.006059520596359 0)
(1.0019468199168 -0.0065930169659064 0)
(1.0022869080896 -0.0071347064407661 0)
(1.0026531557608 -0.0076941907391173 0)
(1.0030453866073 -0.008274473726435 0)
(1.0034661619537 -0.0088787315036129 0)
(1.0039143385386 -0.0095011267648476 0)
(1.0043937427613 -0.010144858983236 0)
(1.0049008388399 -0.010800495632472 0)
(1.0054423023211 -0.011482537816296 0)
(1.0060105509036 -0.012176140859112 0)
(1.0066187467822 -0.012914748269629 0)
(1.0072511837009 -0.013660510522374 0)
(1.0079342650416 -0.014477547109805 0)
(1.0086339691583 -0.015271431425115 0)
(1.0094044802366 -0.016173855674209 0)
(1.0101702089808 -0.016974115023305 0)
(1.0110476256007 -0.01796150202024 0)
(1.0118666800396 -0.018684378882493 0)
(1.0128895969263 -0.019783381449541 0)
(1.0000008811835 -0.00034253067143794 0)
(1.000033422466 -0.0010224035115909 0)
(1.0000960536519 -0.0017056318336227 0)
(1.0001900651795 -0.0023879119658473 0)
(1.0003157771188 -0.003066745185932 0)
(1.0004729800774 -0.0037412386309971 0)
(1.0006610030494 -0.0044087381305031 0)
(1.0008791892693 -0.0050644760186024 0)
(1.0011263865814 -0.0057034817595437 0)
(1.0014016471153 -0.0063249526125247 0)
(1.0017034966147 -0.0069334012288057 0)
(1.0020316351117 -0.0075394682825076 0)
(1.0023852394736 -0.0081541385144624 0)
(1.0027657020317 -0.0087886974270732 0)
(1.0031726150713 -0.0094466228366643 0)
(1.0036088883067 -0.010131741649824 0)
(1.0040729433739 -0.010837120958158 0)
(1.0045692233624 -0.011566639361142 0)
(1.0050933166906 -0.012309042859441 0)
(1.0056530633477 -0.013081464341581 0)
(1.006239190172 -0.013866223206238 0)
(1.0068672343798 -0.01470271600784 0)
(1.0075180929569 -0.015546476201508 0)
(1.008223255331 -0.016472970679711 0)
(1.0089413245538 -0.017372067248165 0)
(1.0097379631303 -0.018398191334871 0)
(1.0105204695641 -0.019306163106932 0)
(1.0114324935669 -0.020433823585374 0)
(1.0122627389996 -0.021255682401028 0)
(1.0133399413343 -0.022518651077315 0)
(1.0000009734319 -0.00038631797586436 0)
(1.0000347845306 -0.0011511096029328 0)
(1.0000997969526 -0.001920065989702 0)
(1.0001974113817 -0.0026881809449761 0)
(1.0003279600785 -0.003452243368722 0)
(1.0004912269354 -0.0042110603899088 0)
(1.0006864857171 -0.0049614893267927 0)
(1.0009130442227 -0.0056979705669457 0)
(1.0011696253066 -0.0064146649365226 0)
(1.0014552045195 -0.0071105121413924 0)
(1.0017681059333 -0.0077905227289186 0)
(1.0021079985237 -0.0084668347550772 0)
(1.0024738638595 -0.0091519843858119 0)
(1.0028672346131 -0.0098589927511569 0)
(1.0032874964849 -0.010591818012441 0)
(1.0037378884207 -0.011354962671854 0)
(1.0042164478539 -0.012140354401784 0)
(1.0047281700922 -0.012952559387294 0)
(1.0052678763684 -0.013778443340181 0)
(1.005844416067 -0.014637788868582 0)
(1.0064470480447 -0.015510051589632 0)
(1.007093373631 -0.016440596498782 0)
(1.0077613006932 -0.01737842030464 0)
(1.008486885015 -0.018410296988868 0)
(1.0092219693515 -0.019410714789587 0)
(1.0100430379828 -0.020556591176611 0)
(1.0108408703107 -0.021568999675821 0)
(1.011786077856 -0.022833688746491 0)
(1.012625622251 -0.023752449066405 0)
(1.0137570485539 -0.025177590403793 0)
(1.0000010655012 -0.000429204577052 0)
(1.0000358918414 -0.001276645570551 0)
(1.0001027989249 -0.0021292245572265 0)
(1.0002033086838 -0.0029812102418119 0)
(1.0003377796914 -0.003828589609063 0)
(1.0005060037239 -0.0046698304896863 0)
(1.0007072155617 -0.0055012759553369 0)
(1.0009407019611 -0.006316540406041 0)
(1.0012050777146 -0.0071088698892978 0)
(1.0014992541702 -0.0078769088170747 0)
(1.00182137174 -0.0086261390088811 0)
(1.0021710744106 -0.0093702057209118 0)
(1.0025471732828 -0.01012321416069 0)
(1.0029513341292 -0.010899958182142 0)
(1.00338277999 -0.011704886387583 0)
(1.0038450413425 -0.012543183371318 0)
(1.0043358573398 -0.013405616668981 0)
(1.0048606727677 -0.01429741453133 0)
(1.0054137158484 -0.015203553436837 0)
(1.0060046137793 -0.016146405434848 0)
(1.0066214979895 -0.017102639269712 0)
(1.0072835799269 -0.018123434580987 0)
(1.007966385558 -0.019151555039967 0)
(1.0087097650226 -0.020284706455723 0)
(1.0094597470834 -0.021382773619954 0)
(1.010302568204 -0.02264428994053 0)
(1.0111136053157 -0.023758160834452 0)
(1.0120895526164 -0.025156255037215 0)
(1.0129359888254 -0.026170265071149 0)
(1.014120471273 -0.027755093432979 0)
(1.0000011546249 -0.00047083138716655 0)
(1.0000366663726 -0.0013979683650241 0)
(1.0001048381043 -0.0023313974511402 0)
(1.0002073227719 -0.0032646465343062 0)
(1.0003445206109 -0.0041928193102051 0)
(1.0005162442381 -0.0051140096675332 0)
(1.0007217087449 -0.0060240284190439 0)
(1.0009601948417 -0.0069156365808853 0)
(1.0012302332542 -0.0077811302673054 0)
(1.0015306847704 -0.0086188235893986 0)
(1.0018595341153 -0.0094346454792382 0)
(1.0022164063226 -0.010243748010706 0)
(1.0025999787952 -0.01106181751695 0)
(1.0030120370652 -0.011905441086073 0)
(1.0034517031877 -0.012779573379112 0)
(1.0039227441744 -0.013690066897152 0)
(1.0044227205888 -0.014626540159414 0)
(1.0049573892557 -0.015594816905389 0)
(1.0055206196836 -0.016578039373118 0)
(1.0061225224655 -0.017601018362366 0)
(1.0067505428561 -0.01863783452073 0)
(1.0074249346577 -0.019745137279431 0)
(1.008119611569 -0.020860012151358 0)
(1.0088772637175 -0.022090350747505 0)
(1.0096392890242 -0.023282695629352 0)
(1.0105003273325 -0.024655644860836 0)
(1.0113218286459 -0.025868398327035 0)
(1.0123252571937 -0.027395977217826 0)
(1.0131757393754 -0.028504096466102 0)
(1.0144113166774 -0.030245520194759 0)
(1.000001238663 -0.00051082543780992 0)
(1.0000370436251 -0.001514002966323 0)
(1.0001057290928 -0.0025248152139868 0)
(1.0002090895212 -0.0035360408272034 0)
(1.0003475796377 -0.0045418289140858 0)
(1.000521044297 -0.0055398719796344 0)
(1.0007286989344 -0.0065254383437589 0)
(1.0009698340718 -0.007490417620111 0)
(1.0012429247568 -0.00842613317804 0)
(1.0015467949302 -0.0093305378336875 0)
(1.0018793102581 -0.010209988379327 0)
(1.0022400805297 -0.011081130007052 0)
(1.002627697849 -0.011961239829441 0)
(1.003044046713 -0.012868698584565 0)
(1.003488225561 -0.013808990550414 0)
(1.0039641683212 -0.014788602158377 0)
(1.0044694046675 -0.015796049535178 0)
(1.0050098387763 -0.016837642280036 0)
(1.0055792656026 -0.017894819490788 0)
(1.0061879387694 -0.018994579473379 0)
(1.0068231336533 -0.020108749299542 0)
(1.0075055091894 -0.021298904662738 0)
(1.0082082421509 -0.022497268656345 0)
(1.0089758027942 -0.023820791484814 0)
(1.0097462833523 -0.025104427974211 0)
(1.0106212486577 -0.02658461847416 0)
(1.0114498594089 -0.027894176121585 0)
(1.0124768616378 -0.029547173381288 0)
(1.0133281430842 -0.030748885803876 0)
(1.0146123091948 -0.032643401223609 0)
(1.0000013151823 -0.00054882372814796 0)
(1.00003697441 -0.0016237100572771 0)
(1.0001053345917 -0.0027077600607112 0)
(1.0002083357515 -0.0037930023882054 0)
(1.0003464956627 -0.0048725725093261 0)
(1.0005197018834 -0.0059437419630515 0)
(1.0007271906391 -0.007001233400287 0)
(1.0009682787336 -0.0080360584575682 0)
(1.0012414150907 -0.0090385567822513 0)
(1.001545400505 -0.010006296045613 0)
(1.0018780231142 -0.010946045337744 0)
(1.0022388788476 -0.011875916616156 0)
(1.0026265313333 -0.012814786690691 0)
(1.0030429353833 -0.013782806589306 0)
(1.0034872557463 -0.01478602810962 0)
(1.0039635111079 -0.015831515002074 0)
(1.0044693685117 -0.016906767353801 0)
(1.00501069686 -0.018018431524394 0)
(1.0055815350154 -0.019146453157859 0)
(1.0061919137853 -0.020319665578994 0)
(1.0068295008228 -0.021508122550288 0)
(1.0075146970815 -0.022777582401053 0)
(1.0082208612486 -0.024056477981854 0)
(1.0089931754408 -0.025469331006922 0)
(1.0097677707272 -0.026841729898417 0)
(1.0106516836362 -0.028425103097817 0)
(1.0114834079723 -0.02982998505764 0)
(1.0125295414591 -0.031604375964778 0)
(1.0133779639114 -0.032899912840714 0)
(1.0147078454613 -0.034943850672187 0)
(1.0000013825207 -0.00058449047068461 0)
(1.0000364268253 -0.0017261348099111 0)
(1.0001035656515 -0.0028786501950361 0)
(1.0002048803613 -0.0040333221206206 0)
(1.0003409566449 -0.005182224753325 0)
(1.0005117346206 -0.0063221953864571 0)
(1.0007164903311 -0.0074474147336101 0)
(1.0009545810732 -0.0085480207786493 0)
(1.0012244583812 -0.0096133702020361 0)
(1.0015249133717 -0.010640629632745 0)
(1.0018536998617 -0.011636968045239 0)
(1.0022103991525 -0.01262192775332 0)
(1.0025936068861 -0.013615991812081 0)
(1.0030053125888 -0.014641036340151 0)
(1.0034448446992 -0.015703734986399 0)
(1.0039162144021 -0.016811647625352 0)
(1.0044174060361 -0.017951390948653 0)
(1.0049540631528 -0.019129759188446 0)
(1.00552080106 -0.02032549331131 0)
(1.0061270615625 -0.021568817996901 0)
(1.0067614762236 -0.022828633634956 0)
(1.0074435470813 -0.024173951147612 0)
(1.0081477118908 -0.025530729396585 0)
(1.0089188726447 -0.027029249815521 0)
(1.0096924587716 -0.028488371310273 0)
(1.0105796938116 -0.03017110462888 0)
(1.0114098384273 -0.031670504395254 0)
(1.0124701766079 -0.033562486549884 0)
(1.0133116215203 -0.034952938992362 0)
(1.0146840397254 -0.037142714653693 0)
(1.0000014389014 -0.00061753291987247 0)
(1.0000353863747 -0.0018204542255172 0)
(1.000100380438 -0.0030361196519186 0)
(1.0001986338642 -0.0042550832839765 0)
(1.0003308031734 -0.0054683212372362 0)
(1.000496887517 -0.0066722285784976 0)
(1.0006962194286 -0.0078604547908622 0)
(1.0009282080871 -0.009022277709466 0)
(1.0011913342513 -0.010146084363532 0)
(1.001484389281 -0.011228630670171 0)
(1.001805135092 -0.012277476826679 0)
(1.0021531346646 -0.013313549076158 0)
(1.0025270763758 -0.014358940753537 0)
(1.002928942948 -0.015437188705625 0)
(1.0033583248655 -0.016555657997179 0)
(1.0038191275387 -0.017722301854521 0)
(1.0043098338079 -0.018923033100398 0)
(1.0048356738217 -0.020164567848668 0)
(1.0053921655983 -0.021424808871183 0)
(1.0059878198669 -0.022734849324086 0)
(1.0066127744138 -0.024063182060674 0)
(1.0072850575181 -0.025480982797694 0)
(1.0079810025428 -0.02691326692717 0)
(1.0087443928709 -0.0284939896217 0)
(1.0095110273354 -0.030038270063537 0)
(1.0103953227722 -0.031816841453404 0)
(1.0112184289061 -0.033410654993425 0)
(1.0122875534401 -0.035416788716674 0)
(1.0131173610124 -0.036904206459047 0)
(1.0145288030298 -0.039236526164545 0)
(1.0000014836269 -0.00064771493661297 0)
(1.0000338537858 -0.0019060160928767 0)
(1.0000957821589 -0.0031790801516234 0)
(1.0001895985707 -0.0044567459932658 0)
(1.0003160286649 -0.005728866096531 0)
(1.0004751336528 -0.0069913894973665 0)
(1.0006663161914 -0.0082374513432006 0)
(1.0008890436847 -0.0094554903004238 0)
(1.0011418505833 -0.010632949310642 0)
(1.0014235344052 -0.011766168926388 0)
(1.0017319058403 -0.012863096443274 0)
(1.0020665002055 -0.013945984624743 0)
(1.0024261557288 -0.015038539145234 0)
(1.0028128019631 -0.016165875291954 0)
(1.0032263834363 -0.017336132512137 0)
(1.0036706002099 -0.018557538396851 0)
(1.0041446044583 -0.019815522237447 0)
(1.0046530369855 -0.021116468321301 0)
(1.0051926190168 -0.022437876174801 0)
(1.005770632496 -0.023811122300102 0)
(1.0063791999209 -0.025205143358032 0)
(1.0070344065923 -0.02669207288628 0)
(1.0077151627303 -0.028197684368296 0)
(1.0084635022842 -0.029857309735807 0)
(1.0092164109785 -0.03148559994546 0)
(1.0100908680102 -0.033356794635821 0)
(1.0109006331279 -0.035045587159056 0)
(1.0119725634021 -0.037162848206329 0)
(1.0127854344755 -0.038750300899028 0)
(1.0142319210171 -0.041222268808531 0)
(1.0000015154996 -0.00067486417716524 0)
(1.0000318459499 -0.0019823578953431 0)
(1.0000898195542 -0.003306754087275 0)
(1.0001778638229 -0.0046371953826764 0)
(1.0002967701169 -0.0059623956770474 0)
(1.000446660476 -0.0072778582329535 0)
(1.0006270177902 -0.0085762259716488 0)
(1.0008373692558 -0.0098451256254005 0)
(1.0010763233567 -0.011071091933927 0)
(1.0013426842443 -0.012250048560043 0)
(1.0016343483012 -0.013390329842559 0)
(1.0019508098382 -0.014515446826366 0)
(1.0022911065266 -0.015650717186346 0)
(1.0026570645016 -0.016822737393079 0)
(1.0030490614953 -0.018040512715141 0)
(1.0034704957759 -0.01931241875266 0)
(1.0039213370339 -0.020623650440952 0)
(1.0044054826039 -0.021979994451556 0)
(1.0049211125401 -0.023359030836985 0)
(1.0054740422023 -0.024791799306433 0)
(1.0060587669292 -0.026248603280091 0)
(1.0066890886267 -0.027801257215611 0)
(1.0073470048168 -0.029378111591861 0)
(1.0080724178429 -0.031113444513315 0)
(1.0088040154149 -0.032824908974736 0)
(1.0096611015328 -0.034785783133679 0)
(1.0104503454655 -0.036570705622675 0)
(1.0115184382904 -0.038796442680146 0)
(1.0123083092076 -0.040487988971261 0)
(1.0137851685965 -0.043097058198239 0)
(1.0000015347495 -0.00069887482093907 0)
(1.0000293930304 -0.0020492143459663 0)
(1.0000825798196 -0.003418687734927 0)
(1.0001635974202 -0.0047957629592718 0)
(1.0002732937992 -0.006168009633885 0)
(1.0004118470624 -0.0075304876151414 0)
(1.0005788268199 -0.008875373812005 0)
(1.0007738182196 -0.010189516509103 0)
(1.0009955204129 -0.011458587512739 0)
(1.0012427414997 -0.01267809555815 0)
(1.0015134925376 -0.013856762036328 0)
(1.0018072094679 -0.015019279016191 0)
(1.0021231664161 -0.016192567497229 0)
(1.0024630356082 -0.017404601321757 0)
(1.0028276860756 -0.018665340105397 0)
(1.0032201283343 -0.019983189276357 0)
(1.0036412626025 -0.021343365167063 0)
(1.0040941210259 -0.022750806962469 0)
(1.0045785360595 -0.024183667893235 0)
(1.0050986899467 -0.025672047528639 0)
(1.0056517263588 -0.02718854525695 0)
(1.0062489665117 -0.028803394140718 0)
(1.0068758043191 -0.030449356319715 0)
(1.0075698897388 -0.032257228411807 0)
(1.0082718265626 -0.034051186843487 0)
(1.0091033936969 -0.036099024878432 0)
(1.0098640881517 -0.037981708424178 0)
(1.0109209839104 -0.040313612664371 0)
(1.0116809761543 -0.042114190298691 0)
(1.0131825414713 -0.044857988651114 0)
(1.0000015410497 -0.00071970604004853 0)
(1.0000265375952 -0.0021065125428804 0)
(1.0000741838113 -0.0035147462464057 0)
(1.0001470301498 -0.0049322220879533 0)
(1.0002459722666 -0.0063453685568127 0)
(1.0003712354438 -0.0077488076102697 0)
(1.0005224751232 -0.0091342782908471 0)
(1.0006993287433 -0.010487887192943 0)
(1.000900596753 -0.011794492966186 0)
(1.0011250904108 -0.013049196716277 0)
(1.0013709577504 -0.014261103886179 0)
(1.0016375605435 -0.01545600987538 0)
(1.0019244257889 -0.016662412372798 0)
(1.0022330246054 -0.017909565921191 0)
(1.0025647413204 -0.019208449577378 0)
(1.0029221342857 -0.020567415292412 0)
(1.0033070942328 -0.021971920460376 0)
(1.0037217183889 -0.023425878915013 0)
(1.0041675991485 -0.024908433144269 0)
(1.0046472129508 -0.026448265165654 0)
(1.0051604827477 -0.028021057676174 0)
(1.0057162194434 -0.029694407808478 0)
(1.0063032822087 -0.031407088615857 0)
(1.0069572138927 -0.033284313069729 0)
(1.007620430478 -0.035159954214816 0)
(1.0084176688416 -0.037292231427945 0)
(1.0091409843243 -0.039274552965634 0)
(1.0101785664513 -0.041710788443908 0)
(1.0109011759576 -0.0436262042628 0)
(1.0124206374746 -0.046502659317089 0)
(1.0000015352911 -0.00073737376219758 0)
(1.0000233260626 -0.0021543498754442 0)
(1.0000647700434 -0.0035950854584877 0)
(1.0001284362403 -0.0050467588820511 0)
(1.0002152511727 -0.006494662023221 0)
(1.0003254764178 -0.0079329857800377 0)
(1.0004588518045 -0.0093530672261292 0)
(1.0006150610815 -0.010740316516788 0)
(1.0007930088665 -0.012078832915208 0)
(1.0009915075156 -0.013363317076117 0)
(1.0012088507213 -0.014603238299975 0)
(1.0014443166577 -0.015825414813225 0)
(1.0016976758687 -0.01705986675817 0)
(1.0019701680929 -0.01833705956125 0)
(1.0022636663704 -0.019669018045137 0)
(1.002580258608 -0.02106403774124 0)
(1.0029228008827 -0.02250794244986 0)
(1.0032924794659 -0.024003608177058 0)
(1.0036926101367 -0.025531356475133 0)
(1.0041240526798 -0.027118298724846 0)
(1.0045893968154 -0.028743543345486 0)
(1.0050951906969 -0.030471618284371 0)
(1.0056334541506 -0.032248092036685 0)
(1.0062381653662 -0.034191621613368 0)
(1.0068529916376 -0.036147511598139 0)
(1.0076063995382 -0.038362091915851 0)
(1.0082826009777 -0.040445424656166 0)
(1.0092916056566 -0.042984768242765 0)
(1.0099688428505 -0.045021696899597 0)
(1.0114988130663 -0.048029628833389 0)
(1.0000015156282 -0.00075194116229746 0)
(1.0000197959023 -0.0021929514185942 0)
(1.0000544659224 -0.0036600726562774 0)
(1.0001080937549 -0.0051398694825569 0)
(1.0001816141821 -0.0066165037839891 0)
(1.0002752934432 -0.0080837298709045 0)
(1.0003889428328 -0.0095325091887193 0)
(1.0005222907786 -0.010947601983701 0)
(1.0006743594607 -0.012312422340449 0)
(1.0008439773042 -0.013621296535773 0)
(1.0010295847659 -0.014884033872524 0)
(1.0012303644559 -0.016128378270316 0)
(1.0014462707111 -0.017385771114694 0)
(1.0016782940681 -0.018687822183563 0)
(1.0019286964635 -0.020047570935191 0)
(1.0021991554664 -0.021473349553865 0)
(1.002493349035 -0.022951346687435 0)
(1.0028117521614 -0.024483644670436 0)
(1.003159128396 -0.026051574570916 0)
(1.0035351229933 -0.027681093783342 0)
(1.0039444173181 -0.029354225853973 0)
(1.0043920895314 -0.031133256177852 0)
(1.0048722495303 -0.032969470280189 0)
(1.0054187536777 -0.034976778076887 0)
(1.0059749450708 -0.037009736568646 0)
(1.0066747375832 -0.039305845821758 0)
(1.0072931822515 -0.041489121490771 0)
(1.0082626480884 -0.044131215677628 0)
(1.0088850475044 -0.04629529520742 0)
(1.0104174775552 -0.049431709367968 0)
(1.0000014801139 -0.00076353781124883 0)
(1.0000160009022 -0.0022226967894842 0)
(1.0000434079047 -0.0037102523842684 0)
(1.0000862698541 -0.0052122035158787 0)
(1.0001455251321 -0.0067116447364789 0)
(1.0002214169718 -0.0082019176977643 0)
(1.000313801912 -0.0096736315586113 0)
(1.0004224183104 -0.011110906641606 0)
(1.0005464026762 -0.01249651492269 0)
(1.0006846279742 -0.013824410192257 0)
(1.0008357140258 -0.015104731850537 0)
(1.0009987655163 -0.016366059066139 0)
(1.0011738376075 -0.01764118124374 0)
(1.0013616489711 -0.018962784001119 0)
(1.0015646657177 -0.020344876802609 0)
(1.0017842595816 -0.021795916580662 0)
(1.0020246556583 -0.023302347396246 0)
(1.0022859960294 -0.024865814082645 0)
(1.0025739607013 -0.026468164426593 0)
(1.0028877618421 -0.02813513962659 0)
(1.0032330766069 -0.029850222871787 0)
(1.0036149491361 -0.031675910753844 0)
(1.0040276021111 -0.03356532683099 0)
(1.0045071892679 -0.035634170636679 0)
(1.0049940216046 -0.037736365559311 0)
(1.0056304941408 -0.040116183182742 0)
(1.0061806513422 -0.042390315929552 0)
(1.0070985196692 -0.04514060962052 0)
(1.0076567048085 -0.047425285562515 0)
(1.0091756232461 -0.05068433861475 0)
(1.0000014279922 -0.00077243687608805 0)
(1.0000121232712 -0.0022443975590104 0)
(1.000031996814 -0.0037467873010354 0)
(1.0000635499192 -0.0052650857354423 0)
(1.0001077077007 -0.006781426253768 0)
(1.0001647091548 -0.00828880455049 0)
(1.0002344849994 -0.0097776127944954 0)
(1.0003168188311 -0.011231470939852 0)
(1.0004109861927 -0.012632600537422 0)
(1.0005158860391 -0.013974482812757 0)
(1.0006302678148 -0.015267430106577 0)
(1.0007531192876 -0.016540586675593 0)
(1.0008845147533 -0.017828034476363 0)
(1.001024897792 -0.019163477358207 0)
(1.0011768156862 -0.020562105516005 0)
(1.0013414617586 -0.02203258819871 0)
(1.0015233790185 -0.023561778133527 0)
(1.001722701651 -0.025150964052777 0)
(1.0019455435263 -0.026782186102449 0)
(1.0021912308034 -0.028481484870881 0)
(1.0024657475115 -0.030232347648297 0)
(1.0027745983484 -0.032100212455247 0)
(1.0031119388506 -0.034034633929754 0)
(1.0035152158655 -0.036163467661469 0)
(1.0039243059438 -0.038320922356037 0)
(1.004484368838 -0.040793342491506 0)
(1.0049598933096 -0.043130933803835 0)
(1.0058089929869 -0.046024735057542 0)
(1.006307736511 -0.048373889293449 0)
(1.0077743776217 -0.051821995301059 0)
(1.0000013505649 -0.00077914960175389 0)
(1.0000084141159 -0.0022597295149541 0)
(1.000020868144 -0.0037723663548581 0)
(1.0000409301484 -0.005302199690164 0)
(1.0000694470299 -0.0068304813725236 0)
(1.0001066296248 -0.0083496793818051 0)
(1.0001523270942 -0.0098501028230779 0)
(1.0002066326435 -0.011315080789302 0)
(1.0002693138883 -0.012726646158863 0)
(1.0003395244207 -0.01407795493959 0)
(1.0004159120825 -0.015379571430326 0)
(1.0004971272048 -0.016660906951704 0)
(1.0005830102585 -0.01795707893093 0)
(1.0006735366442 -0.019302406225723 0)
(1.0007711994966 -0.020713503549597 0)
(1.0008771398964 -0.022199212196461 0)
(1.0009963256124 -0.023747684061182 0)
(1.0011290874074 -0.025359664604279 0)
(1.0012822074072 -0.027018480626446 0)
(1.0014545528253 -0.028749660308303 0)
(1.0016538178157 -0.030537526608797 0)
(1.001882342576 -0.032450107728829 0)
(1.0021412463273 -0.034431891767803 0)
(1.0024554847182 -0.03662916608042 0)
(1.0027863661111 -0.038839647097306 0)
(1.0032417291008 -0.041434551376279 0)
(1.003647504182 -0.043807371204265 0)
(1.0043797470886 -0.046955426566851 0)
(1.0048479100612 -0.049239532924334 0)
(1.0062179343366 -0.053250029626275 0)
(1.0000011670063 -0.00078490504363354 0)
(1.000004342483 -0.0022726371990877 0)
(1.0000094109404 -0.0037950134822598 0)
(1.0000178601028 -0.0053368677706997 0)
(1.0000307262333 -0.0068781862700777 0)
(1.000048252158 -0.0084105731024873 0)
(1.0000701763775 -0.00992375692676 0)
(1.0000958829159 -0.011400746029235 0)
(1.0001252876348 -0.012823266056631 0)
(1.0001581495024 -0.014184294337549 0)
(1.0001941357821 -0.015494848055931 0)
(1.0002318508297 -0.016785389519027 0)
(1.0002706006608 -0.018093178549838 0)
(1.0003096691297 -0.019453526775045 0)
(1.0003509224131 -0.020884795736774 0)
(1.0003953016433 -0.022395100824539 0)
(1.0004478152071 -0.023974314995794 0)
(1.0005093104616 -0.025621229756734 0)
(1.000587279576 -0.027323198661574 0)
(1.0006802363696 -0.029102763774116 0)