/*--------------------------------*- C++ -*----------------------------------*\
| =========                 |                                                 |
| \\      /  F ield         | OpenFOAM: The Open Source CFD Toolbox           |
|  \\    /   O peration     | Version:  2112                                  |
|   \\  /    A nd           | Website:  www.openfoam.com                      |
|    \\/     M anipulation  |                                                 |
\*---------------------------------------------------------------------------*/
FoamFile
{
    version     2.0;
    format      ascii;
    arch        "LSB;label=32;scalar=64";
    class       surfaceScalarField;
    location    "6.5";
    object      phi;
}
// * * * * * * * * * * * * * * * * * * * * * * * * * * * * * * * * * * * * * //

dimensions      [0 3 -1 0 0 0 0];

oriented        oriented;

internalField   nonuniform List<scalar> 
43645
(
0.3951236182199
-4.7452041317311e-06
0.39513798419271
-1.4366030392055e-05
0.39516175877958
-2.37746491552e-05
0.39519479887915
-3.30401639042e-05
0.39523700035319
-4.2201538649352e-05
0.39528838957486
-5.1389285598937e-05
0.39534921245707
-6.0822944898378e-05
0.39541991234118
-7.0699945370527e-05
0.39550102385109
-8.1111569550114e-05
0.39559307235749
-9.2048564447524e-05
0.39569650875491
-0.00010343645378823
0.39581171082782
-0.00011520212766909
0.39593900465688
-0.00012729388217267
0.39607874547312
-0.00013974086782281
0.3962313424744
-0.0001525970513262
0.39639733864671
-0.00016599622097143
0.39657731615746
-0.00017997755806423
0.3967719597674
-0.00019464365609072
0.39698179177653
-0.00020983205417542
0.39720737868802
-0.00022558695564341
0.39744884243021
-0.00024146378552308
0.39770649400441
-0.00025765161694515
0.39797983174724
-0.0002733377850363
0.39826908571514
-0.00028925400980883
0.3985729428531
-0.0003038571796167
0.39889207354453
-0.00031913073307516
0.39922389386419
-0.00033182036129099
0.3995705327882
-0.00034663896530359
0.3999269095841
-0.00035637683653221
-0.00037168239790356
0.40029859194056
0.372946981953
-9.1725049960473e-06
0.3729604264749
-2.7810648243518e-05
0.37298283765231
-4.6185924275087e-05
0.37301405633772
-6.425894688632e-05
0.37305395622923
-8.210152644699e-05
0.37310254384842
-9.9976999314533e-05
0.37316004574423
-0.00011832493315303
0.37322688517169
-0.00013753946317235
0.37330357658092
-0.00015780306687403
0.37339062576527
-0.00017909783470923
0.3734884648231
-0.00020127559524564
0.37359745347969
-0.00022419086572149
0.37371790074785
-0.00024774122957872
0.37385014616772
-0.00027198636488494
0.37399458553242
-0.00029703649116379
0.37415175107678
-0.00032316183864317
0.37432221866263
-0.00035044521545438
0.37450667095103
-0.00037909601453087
0.37470563631657
-0.00040879748831868
0.37491969209525
-0.00043964280181257
0.37514898474533
-0.00047075650204368
0.37539384958412
-0.0005025165214649
0.37565383259584
-0.00053332086182278
0.37592919375877
-0.00056461523746919
0.37621869903564
-0.00059336252091524
0.37652303544604
-0.00062346720791529
0.37683975689976
-0.00064854187945504
0.3771709557574
-0.00067783788678233
0.37751182391887
-0.00069724505989847
-0.00072765178240444
0.37786779323956
0.35201523384789
-1.3508921507814e-05
0.35202836872672
-4.0945626272769e-05
0.35205012945941
-6.7946756531943e-05
0.35208034744744
-9.4477033350958e-05
0.35211888211007
-0.00012063628552502
0.35216571662881
-0.00014681161222057
0.35222105012738
-0.00017365852336593
0.35228527963054
-0.00020176905550423
0.35235889660422
-0.00023142012709389
0.35244238728139
-0.00026258859590595
0.35253616554399
-0.00029505393922744
0.35264057387273
-0.00032859927338915
0.35275590301731
-0.00036307045056921
0.35288247527725
-0.00039855869896553
0.35302066719148
-0.00043522847725954
0.35317099526001
-0.00047348997710898
0.3533340178092
-0.0005134678326777
0.35351041165757
-0.00055548992943654
0.35370069932702
-0.00059908522287082
0.35390547790702
-0.00064442144590325
0.35412490911239
-0.0006901877705501
0.35435938553375
-0.00073699300545701
0.35460848558331
-0.00078242097354806
0.35487256718079
-0.00082869689707638
0.35515042622531
-0.00087122162754359
0.3554428894367
-0.00091593048178845
0.35574750449991
-0.00095315700549845
0.35606655089967
-0.00099688434918463
0.35639512503556
-0.0010258192566839
-0.0010713968073713
0.35673886999712
0.33225828982144
-1.7754867456346e-05
0.33227114901142
-5.3804905923379e-05
0.33229238911604
-8.9186951220473e-05
0.33232180166597
-0.00012388967240895
0.33235921277754
-0.00015804748447897
0.33240457454947
-0.00019217346956261
0.33245805704981
-0.00022714110689296
0.33252003256697
-0.00026374465366528
0.332590972365
-0.00030236000377937
0.3326713460736
-0.00034296238090422
0.33276155156377
-0.00038525950341229
0.33286191626489
-0.00042896404630794
0.33297271490467
-0.00047386915985022
0.33309425652307
-0.00052010038482262
0.33322690267111
-0.0005678746906914
0.33337116069543
-0.00061774806507373
0.3335275763909
-0.00066988359006124
0.33369682898849
-0.0007247425875943
0.33387943934858
-0.00078169564221755
0.33407603543795
-0.00084101759363367
0.33428679735633
-0.00090094974641939
0.33451219221435
-0.00096238792050079
0.33475183134337
-0.0010220601591524
0.33500619802776
-0.001083063638011
0.33527411178548
-0.001139135441759
0.33555658480781
-0.0011984035609285
0.33585114196683
-0.0012477142215957
0.33616033609429
-0.001306078533453
0.33647914692576
-0.0013446301432547
-0.001405899104008
0.33681364916485
0.31361022573777
-2.1923301153741e-05
0.31362284586349
-6.6425111855061e-05
0.31364363343765
-0.00010997460560492
0.31367234026192
-0.00015259657576015
0.31370875345445
-0.00019446075425646
0.31375278774562
-0.00023620783596872
0.31380458090312
-0.00027893433739246
0.31386448050212
-0.00032364432345528
0.31393293905108
-0.00037081862117776
0.31401041079587
-0.00042043419190299
0.31409727731328
-0.00047212608467406
0.31419384930029
-0.00052553609500651
0.31430038241797
-0.00058040233699968
0.31441716990198
-0.00063688792636314
0.31454455648283
-0.00069526132712753
0.3146830418628
-0.00075623349903661
0.31483316228536
-0.00082000406505686
0.31499560702154
-0.00088718737504968
0.31517090232395
-0.00095699099480308
0.31535971952375
-0.0010298348429273
0.31556226534386
-0.0011034956153856
0.31577909769618
-0.0011792203214611
0.316009868141
-0.0012528306524345
0.31625520633999
-0.0013284018856795
0.31651396057397
-0.0013978897246351
0.3167873559023
-0.0014717989387514
0.31707289552458
-0.0015332538938944
0.31737343727006
-0.0016066203290335
0.31768383236295
-0.0016550252849773
-0.0017326720041564
0.31801060521152
0.29600879660287
-2.6018113725947e-05
0.29602118928255
-7.881786500965e-05
0.29604154318873
-0.00013032858515403
0.29606956865972
-0.00018062211906752
0.29610501136881
-0.00022990353403024
0.2961477456649
-0.00027894220097844
0.29619787447874
-0.00032906321817951
0.29625571924068
-0.00038148915044213
0.29632171312691
-0.00043681257036123
0.29639629475533
-0.0004950158813072
0.29647982880047
-0.00055566018869493
0.2965726083316
-0.00061831568310474
0.29667486864975
-0.00068266271009335
0.29678688641354
-0.00074890574335545
0.29690898898432
-0.00081736394932883
0.29704166929597
-0.00088891386065262
0.29718545517321
-0.00096378999081093
0.29734104909809
-0.001042781347361
0.29750898577439
-0.0011249277174636
0.29768998569226
-0.0012108348064849
0.29788428741619
-0.0012977973843398
0.29809254797118
-0.0013874809211796
0.29831446674795
-0.0014747494736635
0.2985508289378
-0.0015647641200562
0.29880052261494
-0.001647583446353
0.2990649913887
-0.0017362677574751
0.29934173507831
-0.001809997628777
0.29963390897057
-0.0018987942664399
0.29993627414127
-0.0019573904995102
-0.0020521587201479
0.30025576081085
0.27939524902147
-3.0032676040901e-05
0.27940739370995
-9.0962617447282e-05
0.27942728149035
-0.00015021642925028
0.27945458048662
-0.0002079211779806
0.27948899410862
-0.00026431721712906
0.27953035539741
-0.0003203035492503
0.2795787316558
-0.00037743953423054
0.27963441764879
-0.00043717519933543
0.27969782673039
-0.0005002217059445
0.27976938119555
-0.00056657039866919
0.27984942775504
-0.00063570679844789
0.27993824046405
-0.0007071284406553
0.28003603248536
-0.00078045477811976
0.28014306218708
-0.00085593549023873
0.28025963780661
-0.00093393961243172
0.28038624422088
-0.0010155203172235
0.28052339990105
-0.0011009457120106
0.28067182024562
-0.0011912017320424
0.2808320492504
-0.0012851567614562
0.28100485766845
-0.0013836432632069
0.28119051983991
-0.0014834595939661
0.28138979381436
-0.0015867549336413
0.2816024358893
-0.0016873915864642
0.2818293864462
-0.0017917147150132
0.28206959198805
-0.0018877890264231
0.28232470428379
-0.0019913800919088
0.28259225886696
-0.0020775522510473
0.28287567243234
-0.0021822078709481
0.28316969942475
-0.0022514175300638
-0.002364043833187
0.28348158449704
0.26371412820195
-3.3951482290112e-05
0.26372597788693
-0.00010281235943682
0.26374532622143
-0.00016956482049671
0.26377180032828
-0.00023439534071399
0.26380506253832
-0.00029757948176905
0.26384490535188
-0.00036014641610215
0.26389136055803
-0.0004238947921728
0.26394469559026
-0.00049051028193492
0.26400530292148
-0.00056082908594867
0.26407358713254
-0.00063485465703124
0.26414987539085
-0.00071199510243162
0.26423442090667
-0.00079167400068245
0.26432741299087
-0.00087344690496622
0.26442908986447
-0.00095761240514807
0.26453973870027
-0.0010445884881363
0.26465983399564
-0.0011356156513581
0.26478988303312
-0.0012309947871109
0.26493061146181
-0.0013319301974889
0.26508257240633
-0.0014371177418687
0.26524658416628
-0.0015476550584893
0.26542296058015
-0.0016598360426078
0.26561255692814
-0.0017763513161318
0.26581519733356
-0.0018900320261114
0.26603196760273
-0.0020084850184042
0.26626189833832
-0.0021177197961899
0.26650682270281
-0.0022363044908005
0.26676436763519
-0.0023350972179752
0.26703814487375
-0.0024559851438376
0.26732301881722
-0.0025362915068337
-0.0026674256233733
0.26762640057182
0.24891309382669
-3.7752665475346e-05
0.24892458329945
-0.00011430188097204
0.24894329027469
-0.00018827184424491
0.24896880363119
-0.00025990874498315
0.24900074734473
-0.00032952324199149
0.24903887542145
-0.00039827453842072
0.2490831850794
-0.00046820449446915
0.24913391600122
-0.00054124124692765
0.24919143868047
-0.00061835180704661
0.24925613819711
-0.00069955421429165
0.24932832087838
-0.00078417782296087
0.24940821756543
-0.00087157072578925
0.24949599256737
-0.00096122194365221
0.24959186192361
-0.0010534817970149
0.24969608998536
-0.0011488165843523
0.24980913780812
-0.0012486635076333
0.24993149907911
-0.0013533560906433
0.25006390516744
-0.0014643363176485
0.25020691745781
-0.0015801300633598
0.25036139551068
-0.0017021331420076
0.25052769655187
-0.0018261371139874
0.25070676346411
-0.001955418258364
0.25089850108135
-0.0020817696731116
0.2511041217612
-0.0022141057280411
0.25132277193515
-0.0023363699999206
0.25155642321392
-0.0024699557995412
0.25180286392376
-0.0025815379579239
0.25206580730832
-0.0027189285583196
0.25234037215401
-0.0028108563815768
-0.0029609965676806
0.2526339430671
0.23494274527585
-4.141042191719e-05
0.23495379795246
-0.00012535460017312
0.23497174329888
-0.00020621723306691
0.23499613610429
-0.00028430159223124
0.23502656614448
-0.0003599533231844
0.23506275223158
-0.00043446066573022
0.23510465883802
-0.00051011114017522
0.2351524978876
-0.00058908033489686
0.23520661701572
-0.0006724709725367
0.2352673800473
-0.0007603172823044
0.23533507151761
-0.00085186932864301
0.23540989812342
-0.00094639736601018
0.23549199907818
-0.0010433229317804
0.23558156617517
-0.0011430489264639
0.23567883991359
-0.0012460903542487
0.23578426409812
-0.0013540877228567
0.23589831634313
-0.0014674083655056
0.23602172812302
-0.0015877481267548
0.23615506757524
-0.0017134695441234
0.23629922659834
-0.0018462921931922
0.23645461043181
-0.001981520975079
0.23662223426994
-0.0021230421238154
0.23680209897863
-0.0022616344088411
0.2369955161731
-0.0024075229494245
0.23720178433314
-0.0025426381867206
0.23742295680868
-0.0026911283018495
0.23765706428974
-0.0028156454657128
0.23790780547093
-0.0029696697658776
0.23817071712883
-0.0030737680649478
-0.0032432129934374
0.23845293352724
0.22175645599955
-4.4896666108259e-05
0.22176699018939
-0.00013588882639449
0.2217840451406
-0.00022327222053663
0.221807146945
-0.0003074034324815
0.22183585634697
-0.00038866276037828
0.2218698612849
-0.00046846563831777
0.22190909594422
-0.00054934583344216
0.22195374501727
-0.00063372944127801
0.2220041324721
-0.00072285845993348
0.22206059955469
-0.00081678439677988
0.222123408069
-0.00091467787403006
0.22219273956762
-0.0010157288949973
0.22226870834116
-0.0011192917348701
0.22235148004981
-0.001225820663979
0.22244127162894
-0.0013358819614687
0.22253850496423
-0.0014513210856202
0.22264364045297
-0.0015725438810312
0.22275740248529
-0.0017015101853413
0.22288036467673
-0.0018364317612732
0.22301344102975
-0.0019793685715307
0.2231570888871
-0.0021251688573439
0.22331237636103
-0.0022783296223892
0.22347941841607
-0.002428676488264
0.22365959041935
-0.0025876949769458
0.22385238295892
-0.0027354307503814
0.22405986471449
-0.0028986100814666
0.22428039638344
-0.0030361771586231
0.22451753014684
-0.0032068035528533
0.22476739412501
-0.0033236320658979
-0.0035124469947115
0.22503662810178
0.20931021856555
-4.8183311708316e-05
0.20932015264409
-0.00014582293656532
0.20933618866559
-0.00023930827363599
0.20935783022421
-0.00032904502246314
0.20938461495758
-0.00041544752467871
0.20941620488622
-0.00050005559753254
0.20945250681713
-0.00058564779446759
0.2094936790489
-0.00067490170276532
0.20954002111178
-0.00076920055200134
0.20959185082749
-0.0008686141412368
0.20964940633404
-0.00097223340875016
0.20971284413277
-0.0010791667214031
0.20978225351986
-0.0011887011490299
0.2098577736836
-0.0013013408542756
0.20993959779383
-0.0014177060976618
0.21002812188241
-0.001539845199659
0.21012378918896
-0.0016682112124849
0.21022730802398
-0.001805029044798
0.21033925840207
-0.001948382163322
0.21046056377663
-0.0021006739696509
0.21059173778454
-0.0022563428884144
0.21073388083618
-0.0024204726968837
0.21088723991332
-0.0025820355879705
0.21105321274766
-0.0027536678336077
0.2112315261431
-0.0029137441679435
0.21142419038611
-0.003091274346434
0.21162998403361
-0.0032419708279195
0.2118521749005
-0.0034289944410813
0.21208765559404
-0.0035591127799988
-0.00376711639931
0.21234232497655
0.19756249736192
-5.1244169652561e-05
0.19757175460333
-0.00015508020547608
0.19758665150571
-0.00025420520358621
0.19760667553348
-0.00034906907768087
0.19763134738545
-0.00044011940384061
0.19766030845161
-0.00052901669068278
0.1976934414121
-0.00061878078166387
0.19773087923506
-0.00071233955220437
0.19777289651462
-0.00081121785772853
0.1978197869398
-0.0009155045923009
0.19787176432534
-0.0010242108198166
0.19792896075722
-0.001136363178478
0.19799144069895
-0.0012511811155385
0.19805931762023
-0.001369217799978
0.19813276035253
-0.0014911488539551
0.19821213669599
-0.001619221566715
0.19829787210474
-0.0017539466443879
0.19839065065289
-0.0018978076157123
0.19849106093378
-0.0020487924665717
0.19860002071896
-0.0022096337768015
0.19871810651985
-0.0023744287109173
0.19884642822026
-0.0025487944185766
0.19898538185924
-0.0027209892479443
0.19913634539176
-0.0029046313868389
0.19929932624877
-0.0030767250454582
0.19947619842254
-0.0032681465404881
0.19966624467551
-0.00343201710102
0.19987231401102
-0.0036350637962416
0.20009222548269
-0.0037790242706325
-0.0040057920185734
0.20033090108154
0.1864740895079
-5.405633058049e-05
0.18648260233655
-0.00016359305860385
0.18649625478164
-0.00026785767331158
0.18651452464047
-0.00036733896111692
0.18653692187035
-0.0004625166582043
0.18656307251431
-0.00055516735904248
0.18659283843289
-0.00064854672448582
0.18662632841991
-0.00074582956336848
0.18666379183082
-0.00084868129260184
0.18670549760717
-0.00095721039246671
0.18675163506203
-0.0010703482982684
0.18680231235837
-0.0011870404982247
0.18685757015394
-0.0013064389342479
0.18691749689106
-0.0014291445599964
0.18698223732788
-0.0015558893133691
0.18705212924806
-0.0016891135091811
0.18712757950143
-0.0018293969196864
0.1872092412241
-0.0019794693599502
0.18729771326231
-0.0021372645259809
0.18739389283277
-0.0023058133680575
0.18749842742239
-0.0024789633209688
0.18761241109633
-0.0026627781125471
0.18773640658102
-0.002844984752346
0.18787173076801
-0.0030399555931878
0.18801871184647
-0.0032237061430315
0.18817901276151
-0.0034284474743525
0.18835250132416
-0.0036055056823317
0.1885414823302
-0.0038240448204762
0.18874484406396
-0.0039823860220029
-0.004227269522076
0.18896632154844
0.17600799354043
-5.6601131783887e-05
0.17601570676805
-0.00017130630844271
0.17602802956222
-0.00028018048990177
0.17604443613893
-0.00038374556030535
0.17606443160364
-0.00048251214531164
0.17608763177292
-0.00057836755068991
0.17611388091986
-0.00067479589368347
0.17614326476958
-0.00077521343528368
0.17617600730237
-0.00088142384746569
0.17621235212295
-0.00099355523504288
0.17625246430783
-0.0011104605049987
0.17629642846216
-0.001231004674289
0.17634426310819
-0.0013542736018648
0.17639603186324
-0.0014809133364736
0.17645185681248
-0.0016117142838271
0.17651204353093
-0.0017493002486136
0.176576980528
-0.0018943339374568
0.17664728362374
-0.0020497724760452
0.17672356341345
-0.0022135443356958
0.17680668301956
-0.0023889329937343
0.17689736814807
-0.0025696484686558
0.17699667263364
-0.002762082616819
0.17710534288535
-0.0029536550223861
0.1772245953101
-0.0031592080358385
0.17735511386997
-0.0033542247205195
0.17749828426888
-0.0035716178905431
0.17765462786359
-0.0037618492941813
0.17782579625291
-0.0039952132265336
0.1780118673544
-0.0041684571398131
-0.0044306174952509
0.17821521530979
0.16612928579506
-5.88649661051e-05
0.16613615887404
-0.00017817940811347
0.16614709031292
-0.00029111194970193
0.16616155639626
-0.00039821166459432
0.16617906286401
-0.00050001863390316
0.1661992200542
-0.00059852476162539
0.16622185774149
-0.00069743360155476
0.16624703958475
-0.00080039529898199
0.16627496403735
-0.00090934832032664
0.16630584870293
-0.0010244399207607
0.16633983482213
-0.0011444466441805
0.16637698389403
-0.0012681537660743
0.16641729433766
-0.0013945840652691
0.16646080503811
-0.001524424056587
0.16650761736897
-0.0016585266342098
0.16655800198302
-0.0017996848819852
0.16661233051215
-0.0019486624856751
0.1666711745844
-0.0021086165670456
0.16673515846323
-0.0022775282329069
0.16680509900924
-0.0024588735576302
0.16688180495453
-0.0026463544313726
0.16696626914475
-0.002846546823876
0.16705943515166
-0.003046821045676
0.16716238402808
-0.003262156928072
0.16727618410001
-0.0034680248079248
0.16740188958488
-0.0036973233905022
0.16754072921815
-0.0039006889424337
0.16769361296127
-0.0041480969843399
0.16786190324327
-0.0043367474363572
-0.0046151887694463
0.16804647450134
0.15680500325558
-6.0839549990931e-05
0.15681101135724
-0.00018418752953212
0.15682051520984
-0.00030061582216737
0.15683299814179
-0.00041069461627999
0.15684797131506
-0.00051499182659778
0.15686504369623
-0.00061559716190088
0.15688403324349
-0.00071642316751844
0.15690498249524
-0.00082134456904528
0.1569280644423
-0.0009324302853056
0.15695347022794
-0.0010498457240018
0.1569813175964
-0.0011722940299712
0.15701164533009
-0.0012984815168997
0.1570444336132
-0.0014273723653778
0.15707969671718
-0.0015596871774464
0.15711751743924
-0.0016963473730263
0.15715812880092
-0.0018402962602575
0.15720188720863
-0.0019924209097695
0.15724931405415
-0.0021560434285805
0.15730104779647
-0.0023292619908579
0.15735784971938
-0.0025156754956047
0.15742061247351
-0.0027091171999946
0.15749025186742
-0.0029161862315583
0.15756791628699
-0.0031244854784086
0.15765452471582
-0.0033487653693551
0.15775154824157
-0.0035650483456814
0.15785966875183
-0.003805443912319
0.15798086079448
-0.0040218809965914
0.15811522791346
-0.0042824641147204
0.1582654869592
-0.0044870064937702
-0.0047806187663367
0.15843091694261
0.14800403349987
-6.252213789629e-05
0.14800916776426
-0.00018932181352295
0.14801723312156
-0.00030868119893788
0.14802772465307
-0.00042118616673253
0.14804016338357
-0.0005274305752657
0.14805416032038
-0.00062959411607404
0.14806952363536
-0.00073178649895445
0.14808627522003
-0.00083809616931233
0.14810456256641
-0.00095071764645564
0.14812455016941
-0.0010698333410876
0.14814633290003
-0.0011940767741179
0.14816992749602
-0.0013220761260339
0.14819529738336
-0.001452742265597
0.14822243258659
-0.001586822393381
0.14825139837061
-0.0017253131696131
0.14828238885748
-0.0018712867595273
0.14831574443887
-0.0020257765033354
0.14835193377704
-0.0021922327785607
0.14839160561475
-0.0023689338399322
0.14843546201393
-0.0025595319054783
0.14848447332991
-0.002758128525978
0.14853947132999
-0.0029711842407339
0.14860180423023
-0.003186818386951
0.14867221866216
-0.0034191798086654
0.14875258917044
-0.0036454188607474
0.14884320717347
-0.0038960619215719
0.14894680530512
-0.0041254791344689
0.14906264357199
-0.0043983023879775
0.14919482438238
-0.0046191873114063
-0.0049267939721014
0.14934099957874
0.13969701028095
-6.3915177989088e-05
0.13970127736018
-0.00019358891404937
0.13970791793782
-0.00031532179753217
0.13971644263704
-0.00042971088568173
0.13972638626887
-0.00053737422523314
0.13973736524165
-0.00064057310533415
0.1397491799883
-0.0007436012603736
0.13976183178609
-0.00085074798024248
0.13977544197437
-0.00096432784639364
0.13979014761753
-0.0010845389946777
0.13980602145718
-0.0012099506232218
0.13982305954013
-0.0013391142177622
0.13984121011491
-0.0014708928486958
0.13986044030422
-0.0016060525907149
0.13988079688678
-0.0017456697600139
0.13990243631856
-0.0018929261989467
0.13992567753093
-0.0020490177231166
0.1399509395541
-0.0022174948087244
0.13997886945195
-0.0023968637442603
0.14001011694911
-0.0025907794083199
0.14004570846035
-0.0027937200420366
0.14008640634272
-0.0030118821267905
0.14013372207323
-0.0032341341200882
0.14018825852747
-0.0034737162643338
0.14025224675312
-0.0037094070869636
0.1403256300395
-0.0039694452077877
0.14041186185624
-0.0042117109510179
0.14050937958345
-0.004495820115441
0.140623632838
-0.004733440567782
-0.0050537782566876
0.14075061711817
0.1318562147215
-6.5025192965704e-05
0.1318596345897
-0.00019700880972419
0.13186488665621
-0.00032057389136256
0.13187150008904
-0.00043632434381331
0.13187902605771
-0.00054490021649297
0.13188708846026
-0.00064863552760708
0.13189548172081
-0.00075199453781149
0.13190418685698
-0.00085945313070988
0.13191329918642
-0.0009734401878204
0.13192292751113
-0.0010941673294995
0.13193312318984
-0.001220146310589
0.13194386244436
-0.0013498534799026
0.13195508000684
-0.0014821104181117
0.13196672180526
-0.0016176943956395
0.13197881420862
-0.0017577621695917
0.13199147896056
-0.001905590956845
0.13200500438507
-0.0020625431532819
0.13201976831758
-0.0022322587463916
0.1320363944382
-0.0024134898693936
0.13205550238015
-0.002609887353799
0.13207812636363
-0.0028163440279268
0.13210501553304
-0.0030387712971469
0.13213774458736
-0.0032668631739064
0.13217688847577
-0.0035128601506191
0.13222486014318
-0.0037573787509601
0.13228144317652
-0.0040260282365964
0.13235060856427
-0.004280876333976
0.13243023085467
-0.0045754424016437
0.13252694521255
-0.0048301549235966
-0.0051617902260603
0.1326349571809
0.1244554827357
-6.5861622920143e-05
0.12445808437704
-0.0001996104932198
0.12446200140888
-0.00032449096645382
0.12446678478648
-0.00044110776228001
0.12447200449873
-0.00055011996580557
0.12447729317816
-0.00065392423995369
0.12448243879236
-0.00075714018090537
0.12448739985478
-0.00086441421839825
0.12449224505509
-0.00097828541030253
0.12449705537988
-0.0010989776739652
0.12450186445706
-0.0012249554055416
0.12450663021483
-0.0013546192540866
0.12451127690046
-0.0014867571192297
0.12451572887964
-0.0016221463897024
0.1245199914759
-0.0017620247803062
0.12452415106447
-0.0019097505594553
0.12452845840888
-0.0020668505112822
0.12453325624201
-0.0022370565924143
0.12453912231667
-0.0024193559560291
0.12454667523989
-0.0026174402876806
0.12455688767007
-0.0028265564671905
0.12457059473951
-0.0030524783736755
0.12458925216255
-0.0032855206019611
0.12461367292695
-0.0035372809177356
0.12464603620564
-0.0037897420303202
0.1246865092513
-0.0040665012810882
0.12473875219229
-0.0043331192728798
0.12480112447091
-0.0046378146784308
0.12488056253084
-0.0049095929838288
-0.0052517323146867
0.12497050461552
0.11747011898654
-6.6436884515719e-05
0.11747194009531
-0.00020143167090403
0.11747458967545
-0.00032714061832717
0.1174776411597
-0.00044415931601599
0.11748068831687
-0.00055316718798631
0.1174833764254
-0.00065661240843185
0.1174854866457
-0.00075925045621054
0.11748695133369
-0.00086587895704437
0.117487808476
-0.00097914259960096
0.11748810930228
-0.0010992785443665
0.117487873505
-0.0012247196501773
0.11748704318931
-0.0013537889787484
0.11748553904945
-0.0014852530185746
0.11748326208561
-0.0016198694642659
0.11748020170857
-0.0017589644410197
0.11747639842687
-0.0019059473148589
0.11747207117247
-0.0020625232932104
0.11746751457931
-0.0022325000345291
0.11746326340385
-0.0024151048144353
0.11745993355687
-0.0026141104726325
0.1174583998076
-0.0028250227475094
0.11745965308945
-0.0030537316822415
0.11746484046105
-0.003290707997201
0.11747535869303
-0.0035477991700343
0.11749251649128
-0.0038068998456919
0.11751801778217
-0.004092002585996
0.11755320237061
-0.0043683038730645
0.11759976739253
-0.0046843797111817
0.11765996706799
-0.0049697926712274
-0.0053273276069084
0.11773556234393
0.11087681610551
-6.6768176786146e-05
0.11087790493144
-0.00020252060246704
0.11087937258486
-0.00032860838158336
0.1108808119945
-0.00044559883328808
0.1108818465892
-0.00055420188545342
0.11088213386295
-0.0006568997793855
0.11088144068013
-0.00075855736529276
0.1108796720718
-0.00086411043603367
0.11087683979635
-0.00097631040774523
0.11087297125005
-0.0010954100787526
0.11086807600398
-0.0012198244826024
0.11086208057462
-0.0013477936262403
0.11085490504886
-0.0014780775684444
0.11084642132775
-0.001611385817777
0.11083660934079
-0.0017491525277654
0.11082544490463
-0.0018947829514227
0.11081313832693
-0.002050216787021
0.11079989707623
-0.0022192588537021
0.11078626831784
-0.0024014761237456
0.1107727851278
-0.0026006273473754
0.11076032414428
-0.0028125618251872
0.1107498982963
-0.003043305891215
0.11074245253656
-0.0032832622898872
0.11073988773328
-0.0035452344143667
0.11074242942136
-0.0038094415765562
0.11075418379873
-0.0041037570010553
0.11077221123087
-0.0043863313384633
0.11080680145414
-0.0047189699644622
0.11084199019467
-0.0050049814409331
-0.0053950619836741
0.11090972453806
0.10465358037558
-6.6882706059854e-05
0.1046540053398
-0.00020294571127248
0.10465437384778
-0.00032897703686408
0.10465432371047
-0.00044554884058417
0.10465353895149
-0.00055341726612769
0.10465168415797
-0.00065504512012382
0.10464847198782
-0.00075534532439304
0.10464375698997
-0.00085939556329279
0.10463752738464
-0.00097008092421884
0.10462980588657
-0.0010876887000263
0.10462061366995
-0.0012106323834105
0.10460988437088
-0.0013370644431531
0.10459754600548
-0.0014657393177867
0.1045834377083
-0.0015972776342154
0.1045675203929
-0.0017332353248112
0.10454968205987
-0.0018769447294551
0.10453013785951
-0.0020306726959559
0.10450896142284
-0.0021980825238877
0.10448679507999
-0.0023793098844662
0.10446394281045
-0.0025777751770005
0.10444155172568
-0.0027901708341988
0.10442019229516
-0.0030219465482083
0.10440138763924
-0.0032644577149254
0.10438626111936
-0.0035301079686889
0.10437579930978
-0.0037989798340305
0.10437353393751
-0.0041014916882304
0.10437571700649
-0.0043885144593628
0.10439943855597
-0.0047426915598502
0.10441369103798
-0.0050192339650406
-0.0054527001715267
0.10447132917873
0.098779601877886
-6.6766467563442e-05
0.098779476006038
-0.0002028200097408
0.09877881676113
-0.00032831796340469
0.09877736084248
-0.0004440930904186
0.09877489959405
-0.00055095618180519
0.098771164669345
-0.00065131035502828
0.098765745814153
-0.00074992662496446
0.098758443415695
-0.00085209331761937
0.098749199274589
-0.00096083693380018
0.098738004190521
-0.0010764937651807
0.098724880126073
-0.0011975084671694
0.098709798337798
-0.0013219828022596
0.098692724739238
-0.0014486658658396
0.098673494367954
-0.0015780474086776
0.098652049663975
-0.0017117907654873
0.098628206204142
-0.0018531014127842
0.098602158516552
-0.0020046251493501
0.098573844494347
-0.0021697686394325
0.098543985417884
-0.0023494509410728
0.098512609371407
-0.0025463992572073
0.098481254124466
-0.0027588157059948
0.098449715212328
-0.0029904077457978
0.098420791686003
-0.0032355342889485
0.098393309153921
-0.0035026255272847
0.098372117837377
-0.0037777885980602
0.098353888487117
-0.0040832624073064
0.098345845632112
-0.0043804716627572
0.098342290522211
-0.0047391364997438
0.098348465204665
-0.0050254086931678
0.098428982569827
-0.005533217587145
0.39574411571075
0.0045544761880823
0.39135050207142
0.0043936135984936
0.38712197247987
0.0042285295509609
0.38306267687737
0.0040592955616425
0.37917665790301
0.0038860189331005
0.37546785872303
0.0037087991380903
0.37194012005488
0.0035277386256922
0.36859716889093
0.0033429511208175
0.36544260493196
0.0031545639152951
0.36247988612616
0.002962718761511
0.35971231540178
0.0027675706796505
0.35714302632455
0.0025692890320099
0.35477496900304
0.0023680572759868
0.35261089566527
0.0021640732919008
0.35065334863877
0.0019575469805064
0.34890465050309
0.0017486980894792
0.34736689851182
0.0015377519451219
0.34604196284881
0.0013249356168123
0.34493148806667
0.0011104747361502
0.34403689673366
0.00089459128710793
0.34335938853657
0.00067750815151203
0.34289993433835
0.00045945415281348
0.34265923581644
0.00024069847689883
0.34263739514763
2.1840624016359e-05
0.34283562518097
-0.00019823007770896
0.34325357702348
-0.00041795188667303
0.34389095846718
-0.00063738148745727
0.34474729235057
-0.00085633392695794
0.34582187714587
-0.0010745848384771
0.34711381499141
-0.0012919378885445
0.34862205770647