/*--------------------------------*- C++ -*----------------------------------*\
| =========                 |                                                 |
| \\      /  F ield         | OpenFOAM: The Open Source CFD Toolbox           |
|  \\    /   O peration     | Version:  2112                                  |
|   \\  /    A nd           | Website:  www.openfoam.com                      |
|    \\/     M anipulation  |                                                 |
\*---------------------------------------------------------------------------*/
FoamFile
{
    version     2.0;
    format      ascii;
    arch        "LSB;label=32;scalar=64";
    class       volScalarField;
    location    "15.9";
    object      p;
}
// * * * * * * * * * * * * * * * * * * * * * * * * * * * * * * * * * * * * * //

dimensions      [0 2 -2 0 0 0 0];

internalField   nonuniform List<scalar> 
22000
(
0.042394324257147
0.042371271085895
0.042323793963591
0.042250677419783
0.042151398523294
0.042025982589761
0.041874676988731
0.041697724439067
0.041495292281313
0.041267496185624
0.041014440688974
0.040736248828647
0.040433070093614
0.040105084951499
0.03975249495024
0.039375530068728
0.038974433989885
0.038549488057282
0.038100980428844
0.037629258592734
0.037134655367553
0.036617603645877
0.036078466758502
0.03551779718039
0.034935951868585
0.034333675398566
0.033711228516593
0.033069700364501
0.032409030603705
0.031730950345743
0.042823682531391
0.042799551501406
0.042750870223257
0.042676509308004
0.042575887951725
0.042448950774375
0.042295889861155
0.042116918599688
0.041912187125187
0.041681796204168
0.041425832529623
0.041144399088398
0.040837622174644
0.04050565956882
0.040148687236902
0.039766912986082
0.039360552809207
0.038929867880266
0.038475114324499
0.037996624606447
0.037494691761099
0.036969747114572
0.036422098415385
0.035852324073485
0.035260687023838
0.03464800793636
0.034014355677069
0.033360974416161
0.032687343741983
0.031995366222602
0.043609268883954
0.043584548244861
0.043534746754511
0.043458826037842
0.043356259317229
0.043226985626528
0.043071159714383
0.042888952714815
0.042680476975321
0.042445799674413
0.042184972781614
0.041898062872851
0.04158515460778
0.041246364048875
0.04088181952091
0.040491686014456
0.040076126912871
0.03963536379443
0.039169593142762
0.038679118385368
0.0381641597984
0.037625144494587
0.037062278202663
0.036476189572577
0.035866972129448
0.035235610795836
0.034581840157391
0.033907281327913
0.033210602190479
0.03249423028642
0.044696335064342
0.044671077410594
0.044620194737496
0.044542648498886
0.04443791984482
0.044305940340886
0.044146837020393
0.043960740247572
0.043747715133133
0.043507779831053
0.043240933604163
0.042947188422479
0.042626567530903
0.042279125302349
0.041904919186431
0.041504049240746
0.041076599226386
0.040622729021202
0.040142544411854
0.039636300889858
0.039104108311934
0.038546380281107
0.037963170133976
0.037355168255422
0.036722217497907
0.036065519263248
0.035384312739037
0.034680712378812
0.033952186331332
0.033201829051972
0.046036702480798
0.046010933390889
0.045959011982867
0.045879885403533
0.045773025197765
0.045638342219691
0.045475926646331
0.045285858920126
0.045068144451332
0.044822736420566
0.044549562205364
0.044248558432018
0.043919663828867
0.043562847466874
0.043178069100277
0.042765337879257
0.042324627012413
0.041856007776672
0.041359459482146
0.040835164712076
0.040283079972708
0.039703587356138
0.039096530878097
0.038462662603174
0.037801489329772
0.037114466859753
0.036400188274482
0.035661376338867
0.034893977299557
0.034101934855856
0.047587260323456
0.047561071775426
0.047508292588311
0.047427857600854
0.047319224599396
0.047182273219077
0.047017042933617
0.046823549020445
0.046601720480011
0.046351427193178
0.046072503837546
0.045764789065401
0.04542811162059
0.045062328734299
0.044667272466597
0.044242831314392
0.043788833101891
0.043305228748152
0.042791830685214
0.042248717390836
0.041675644035958
0.041072935786249
0.040440167130644
0.039778141727518
0.039085945249479
0.03836531456968
0.037614056473232
0.036835594477709
0.036024051493563
0.035184334121385
0.049308919884125
0.049282488813795
0.049229208654087
0.049147999701663
0.049038298992617
0.048899944644139
0.048732912688908
0.048537138661
0.048312458378019
0.048058639523819
0.047775402386798
0.047462463747103
0.04711951529086
0.046746273730827
0.046342411025307
0.045907662179834
0.045441671600882
0.044944233769372
0.044414949771277
0.043853756720035
0.043260155941036
0.042634381541497
0.041975673464059
0.041284865580063
0.040560535534738
0.039804707107639
0.03901426277698
0.038193381616349
0.037334074322416
0.036442244984815
0.051165816815158
0.051139396952565
0.051086130566848
0.051004921898295
0.050895180010621
0.050756690541251
0.050589352852589
0.050393007941863
0.050167382167291
0.049912122936469
0.049626815197118
0.049311030201761
0.048964295267496
0.048586156842946
0.048176092847219
0.047733649523846
0.04725824733657
0.046749484419944
0.046206702616772
0.04562965452026
0.045017530652481
0.044370431233679
0.043687192718111
0.04296864272098
0.042212760927029
0.041421841952181
0.040591711121684
0.039727318541992
0.038818298032844
0.037871505013534
0.053124825275149
0.053098737136767
0.053046128859922
0.052965894189365
0.052857411171599
0.052720403819077
0.05255468272746
0.052359980823035
0.052135899088062
0.051881945927586
0.051597549546316
0.051282112632345
0.050934972111018
0.0505554753101
0.050142872649373
0.049696485539849
0.04921546890688
0.048699181876861
0.048146656978709
0.047557414040591
0.046930272955556
0.046265148150727
0.045560400138065
0.044816800418192
0.044031641165872
0.043207446526635
0.042338860615877
0.041431577238086
0.040472616081627
0.039469643919474
0.055155275069429
0.055129893137502
0.055078695199606
0.055000574916621
0.054894880121669
0.054761265580173
0.054599441495968
0.054409019946343
0.054189463162816
0.053940125853768
0.053660261510943
0.053349082103462
0.053005708472535
0.052629261178946
0.052218731828713
0.051773182343042
0.051291461802674
0.05077264676462
0.05021541006457
0.04961898679577
0.048981765132162
0.048303414468098
0.047581746536902
0.046817411466045
0.046006925922563
0.045152977700733
0.044248917454634
0.043301106778118
0.042293747704916
0.041235072951933
0.05722888500387
0.057204624027484
0.057155671386932
0.057080933694863
0.056979731354769
0.056851644548667
0.056696273903404
0.056513100585864
0.056301437603106
0.056060474192653
0.055789275096263
0.05548684483572
0.055152067251981
0.054783810515197
0.05438077837336
0.053941741045271
0.053465204897361
0.052949921927469
0.052394157254337
0.051796807505955
0.051155769343113
0.050470401206782
0.04973789422105
0.048958699229862
0.048128474689173
0.047249977859982
0.046315168838035
0.045330949968834
0.04427853909901
0.043166376439757
0.059319807104811
0.059297107709731
0.059251287530284
0.059181282069866
0.059086389816678
0.058966113269889
0.05881993720155
0.058647205406614
0.058447075298141
0.058218563374415
0.057960536437338
0.057671779618731
0.057350924883716
0.056996569400934
0.05660710538921
0.05618098228297
0.055716331453893
0.055211541719978
0.054664427554088
0.054073494264113
0.05343609123065
0.052751196001538
0.052015312016346
0.051228599290681
0.050385782780392
0.049489569618496
0.048530451242612
0.047515689198967
0.046423396051199
0.04526174256721
0.061404716909158
0.061384029063836
0.061342249467981
0.061278360081444
0.061191644598079
0.061081527688886
0.060947375689676
0.060788392879763
0.06060357973202
0.060391778197577
0.060151653890268
0.059881766807155
0.059580488757579
0.059246133910936
0.058876768081778
0.058470498599207
0.058025055833659
0.057538431392712
0.057007953333441
0.056431686150617
0.055806383743759
0.055130571020122
0.054400003947923
0.053614450686375
0.052767639155832
0.051862079127041
0.050886738753606
0.049849003951932
0.048723809723599
0.047518459518097
0.06346290952619
0.063444677642465
0.063407835858883
0.063351432433968
0.063274745831997
0.063177125120257
0.063057819323128
0.062915895930628
0.062750202710242
0.062559411305585
0.062341989609813
0.062096273860709
0.061820375354592
0.061512321240163
0.061169844702532
0.060790698650114
0.060372197716406
0.059911909455198
0.059406648490667
0.058853994362872
0.058250067543137
0.057592870303133
0.056877363434481
0.056102813719216
0.055261903632676
0.054356776011387
0.053374847985726
0.052323340426347
0.051173996309999
0.049932533892126
0.06547636904945
0.065461016811455
0.065429970770832
0.065382365914057
0.065317486130052
0.06523461023127
0.065132875076133
0.065011218877488
0.064868346663212
0.064702770323103
0.064512770610598
0.064296469008534
0.064051724601877
0.0637762824554
0.063467546963478
0.063122913907179
0.062739278756428
0.062313769760296
0.061842673391132
0.061323047243988
0.060750353058039
0.060122004416272
0.059432134113058
0.058679395195158
0.057855396870218
0.056961724125632
0.055984248327836
0.054929685772316
0.053766632768818
0.052498386500118
0.067429794870509
0.067417712776583
0.067393254494225
0.067355663547612
0.067304241948342
0.067238205328748
0.067156586957737
0.067058208106673
0.066941646561185
0.066805271186478
0.066647193248384
0.066465336263992
0.06625732427833
0.06602063461564
0.065752357430778
0.065449539408947
0.065108665735656
0.064726421371512
0.0642985654277
0.063821608349702
0.063290342399765
0.062701533330299
0.062048470924307
0.061329080487407
0.060533893910318
0.059663734466144
0.058702972916833
0.057657436923964
0.056492691236673
0.055208661890524
0.069310572039796
0.069302106676657
0.069284941797568
0.069258452186343
0.069221970196166
0.069174657364612
0.069115455654663
0.069043086077142
0.068956019676451
0.068852504485292
0.068730506334421
0.068587775106941
0.06842172577354
0.068229591877755
0.06800817451745
0.067754190587882
0.067463736601723
0.067133062976033
0.06675741680165
0.066332750421571
0.065853194899299
0.065314819932778
0.06471007680756
0.064036052883869
0.063282222346827
0.062448428821509
0.061517632082839
0.060494359229422
0.059341345150568
0.058054094111474
0.071108682462422
0.071104131066179
0.071094864426052
0.07108041120473
0.071060147183358
0.071033190300731
0.070998405721098
0.07095443501351
0.070899667849047
0.070832258744597
0.070750057449266
0.070650670636968
0.070531337655985
0.070389081462552
0.070220449569988
0.07002186018146
0.069789055123095
0.069517873029509
0.069203078436372
0.068840070020427
0.068422342345481
0.067945240071692
0.067400400999339
0.066783979610559
0.066084434786574
0.065300406182352
0.064413557525235
0.063426671416977
0.062299968471428
0.061023431086856
0.072816568817374
0.072816170219711
0.072815293679965
0.072813643682448
0.072810652263997
0.072805404089056
0.07279670331542
0.072783134207875
0.072763033857783
0.072734496055103
0.072695290332932
0.072642916640636
0.072574477541107
0.072486825119772
0.072376297199246
0.072239056182195
0.072070534928467
0.07186619861318
0.071620370821532
0.07132792099418
0.070981741076038
0.070576446743372
0.070102894598486
0.069556252208811
0.06892402047735
0.068203458075357
0.067375039958636
0.06643931964804
0.065354344675447
0.064103477096142
0.074428948538953
0.074432886432153
0.074440778332326
0.07445252257724
0.074467619468479
0.074485134070087
0.074503828517303
0.074522252425138
0.074538717696856
0.074551290935897
0.074557703343274
0.074555392759544
0.074541370911825
0.074512363326722
0.074464547955975
0.074393883617527
0.074295550920309
0.074164696071426
0.073995253913662
0.07378161520753
0.073516104974115
0.073192646697364
0.072801316774915
0.072336312040637
0.071784167188957
0.071140773938339
0.070385468951748
0.069516300384761
0.068489138007214
0.067279536336315
0.075942590691683
0.075951004491246
0.075967943191677
0.075993506871608
0.076027270068192
0.076068294778453
0.076115327071256
0.076166909750032
0.076221357200412
0.076276739117601
0.076330790208226
0.076380932658318
0.076424140152048
0.076457061717012
0.076475774459116
0.076476089404461
0.076453002693851
0.076401406160202
0.07631491625144
0.076187519754693
0.076011022485548
0.075778748921931
0.075479953779873
0.075107987152162
0.07464815927951
0.074095311440339
0.073427280008328
0.072640516655134
0.071687835282425
0.070536325855709
0.077356046494028
0.077369036338155
0.077395222247096
0.077434898133331
0.077487709712637
0.077552722697064
0.07762868875782
0.077714181125277
0.077807554386684
0.077906914047144
0.078010040383618
0.07811437608687
0.078216906799984
0.078314257752138
0.078402483459403
0.07847730072202
0.078533603833758
0.078566077383401
0.078568125981347
0.078533387616445
0.078453265410573
0.078320578769889
0.07812380622568
0.077855667564331
0.077499815956986
0.077050566502114
0.076482523816486
0.075793321988438
0.074929941609881
0.073857217992006
0.078669412086812
0.078686988833286
0.078722501687786
0.078776447987652
0.078848546059254
0.078937840587867
0.079043068825227
0.079162869875523
0.079295715144591
0.079439800749378
0.07959298488001
0.079752733472736
0.079916078002399
0.080079669295709
0.080239635490151
0.080391651754496
0.080530625539414
0.080651040511701
0.080746252566905
0.080809480386481
0.080831992657072
0.080805944321974
0.080719492477845
0.080564553692409
0.080323573110727
0.079990405364702
0.079534389049721
0.078955696982049
0.078186881827645
0.077213868927257
0.079884266754004
0.079906235785698
0.079950796717521
0.080018818182222
0.080110169755673
0.080223830822245
0.080358413404855
0.080512533020481
0.080684910413871
0.080874042974563
0.081077904903815
0.08129391484568
0.081519139192872
0.081750279611618
0.081983604986787
0.082214777260252
0.082438852504153
0.082650107559511
0.082842092132101
0.083007394576078
0.08313763565106
0.083223608226858
0.083254357425192
0.083219196579882
0.083102578622596
0.08289429705009
0.0825653302524
0.082108524600732
0.081437859973538
0.080548139255236
0.081003948229799
0.081030050140376
0.081082754104799
0.08116380967007
0.081273379665961
0.081410476212591
0.081573635564683
0.08176107782743
0.081971565199981
0.082204406541521
0.082457818870422
0.082729199859217
0.08301569348559
0.083314078325145
0.083620762218111
0.083931404242179
0.084241294108567
0.084544578585915
0.08483520114225
0.085105116807146
0.085346862603185
0.085549369047417
0.08570403042621
0.085794960454501
0.085813667535158
0.085736716492405
0.085557266759213
0.085235834522557
0.084730294555192
0.083869549306554
0.031077790615441
0.030452871067843
0.029814203013425
0.029162999189876
0.028500405731156
0.027827301075366
0.027144367921731
0.026452232225838
0.025751558865928
0.025043081078243
0.024327588620482
0.023605904966783
0.022878871738555
0.022147342561385
0.021412182335597
0.020674267967833
0.019934489137694
0.019193746636101
0.018452949367889
0.017713011584947
0.016974851761857
0.0162393934569
0.015507570483263
0.014780334589169
0.014058648219458
0.013343278202852
0.012634910985852
0.011934387102138
0.011242597789885
0.010560400048316
0.0098885896686046
0.0092279072093596
0.0085790484020403
0.0079426744379721
0.0073194111311821
0.0067098501428833
0.0061145391591298
0.0055339883823066
0.0049686547332264
0.0044189619589073
0.0038852673050875
0.0033679105175126
0.0028671377892041
0.002383214557241
0.001916252252904
0.0014664664828821
0.0010337782490772
0.00061839586287842
0.00021987211674242
-0.00016161131227532
0.031331718157422
0.03069912054841
0.030050755653538
0.029389376524334
0.028716796611186
0.028033827190936
0.027340808831519
0.026638075066194
0.02592615048483
0.025205741379378
0.024477652149728
0.023742719688149
0.023001788903117
0.022255713933911
0.021505367395905
0.020751647289339
0.019995477852312
0.019237805676254
0.018479594148834
0.017721818675692
0.016965460859989
0.016211499810161
0.015460895254258
0.014714563989844
0.013973371133902
0.013238390880023
0.012510772473914
0.011791452228275
0.011081271474226
0.010381058891025
0.0096916425162623
0.009013836660739
0.0083484247124665
0.0076961534087688
0.0070577218114395
0.006433788215511
0.0058249548978416
0.0052317877504198
0.0046547827381312
0.0040944136432075
0.00355105645692
0.0030251016111012
0.0025167828378957
0.0020264364963112
0.0015541115900761
0.001100166607409
0.00066438857245445
0.0002473770328432
-0.00015140591747839
-0.0005302831525037
0.031808889307665
0.031154397724342
0.030479659339708
0.02979089925831
0.02909155778913
0.028382479548514
0.027663434422723
0.026934277615403
0.026195357822518
0.025447420253153
0.024691373187104
0.023928134741589
0.023158592868865
0.022383624384115
0.021604123880755
0.020821020984834
0.020035282059556
0.019247901735234
0.018459892965776
0.017672280551283
0.016886097343981
0.016102381903303
0.015322179484596
0.014546549812755
0.013776577974257
0.013013305274521
0.012257720338143
0.011510807785755
0.01077352567823
0.010046804122151
0.0093315456851921
0.0086286256442444
0.0079388796053739
0.0072631044396295
0.0066020419804222
0.0059563950093514
0.0053267980722983
0.0047138583809993
0.0041180897598641
0.0035400105205408
0.0029799921100022
0.0024384871400312
0.00191568298981
0.0014120302149814
0.0009274489214503
0.00046255412132505
1.6856380355059e-05
-0.00040834404057324
-0.00081388560385415
-0.0011954384433364
0.032484450108946
0.031794974565038
0.031078905994798
0.030347992526228
0.02960810682595
0.028860028177489
0.02810258753367
0.027334898525728
0.02655705153993
0.025769853747934
0.024974357315254
0.02417157689163
0.023362432825522
0.022547801210689
0.021728574056586
0.020905692148444
0.020080147765496
0.019252970755577
0.01842521393234
0.01759794604814
0.016772249368679
0.015949217484478
0.015129950446752
0.014315547291951
0.013507094178699
0.012705667259237
0.011912335927697
0.01112814928303
0.010354132625072
0.0095912853108447
0.0088405721324922
0.0081029250137045
0.0073792303965811
0.0066703390287632
0.0059770419459857
0.0053000994558956
0.0046401904391815
0.0039979841571639
0.0033740262276063
0.0027689089835832
0.0021830096150571
0.0016168870920096
0.0010706792139691
0.00054502347835044
3.9673228200731e-05
-0.00044435567851582
-0.0009079209512694
-0.001348619949978
-0.0017675649213611
-0.0021560910491872
0.033344321765988
0.032608756514507
0.031838238938681
0.031052168062564
0.030259639564855
0.02946121031533
0.028654362672997
0.027837198946615
0.027009482443922
0.026172121653475
0.025326364040606
0.024473342496976
0.023614004768211
0.022749211610907
0.02187983957555
0.021006832891223
0.020131206167784
0.019254021868165
0.01837636867508
0.017499352466402
0.01662409411868
0.015751727130229
0.014883392578791
0.014020234358658
0.013163394930367
0.012314012653115
0.011473215951269
0.010642116932785
0.0098218031620712
0.0090133367504102
0.0082177442540992
0.0074360217666615
0.0066691173252465
0.0059179486407699
0.0051833672523362
0.0044662047381089
0.0037671947763115
0.0030870858795677
0.0024264645907805
0.0017860208558251
0.0011661415319355
0.00056752816929507
-9.7409939221853e-06
-0.0005647747185684
-0.0010980283898444
-0.0016079383099434
-0.0020958338453832
-0.0025578175831243
-0.0029953732219626
-0.0033940164917471
0.034379940845412
0.033588333910335
0.032751127577935
0.031897719341317
0.031041270085154
0.030181921869294
0.029315364786303
0.028438417318997
0.027550465127107
0.026652577357045
0.025746260219001
0.024832792035047
0.023913145721727
0.022988154088364
0.022058668072172
0.021125630805634
0.020190077902856
0.019253103637021
0.018315830635664
0.017379399013002
0.016444966085901
0.015513705830781
0.01458680458431
0.013665456895228
0.012750860269547
0.011844208667246
0.010946686655943
0.010059465263687
0.0091836929587838
0.0083204965134777
0.0074709676712161
0.0066361720281673
0.0058171247629224
0.0050148174660014
0.0042301675185358
0.0034640869476006
0.0027173699828266
0.0019908576141211
0.0012851818962029
0.00060115115012203
-6.0838408050136e-05
-0.00069990796759064
-0.0013160536510174
-0.0019080660896514
-0.0024766596965308
-0.0030195846933075
-0.0035387595548104
-0.0040284046583752
-0.0044904450215307
-0.0049029256662118
0.035585948413143
0.034729171156446
0.03381361593563
0.032881303375882
0.031950347344787
0.031020216061483
0.030084303798624
0.029137858487395
0.028179851324131
0.027211587807483
0.026234903932608
0.025251249363435
0.024261615631162
0.023266792901379
0.022267596303229
0.021264963876288
0.020259951847858
0.019253686102235
0.018247321952448
0.01724203202773
0.0162390084759
0.015239464341168
0.014244629316303
0.01325574523093
0.012274059925521
0.01130082145784
0.010337271894512
0.0093846433988315
0.0084441478126907
0.0075169796662105
0.0066042995778276
0.0057072476824859
0.004826911204415
0.0039643632809431
0.003120594268052
0.002296607327495
0.0014932649906158
0.00071151641822724
-4.7953614436665e-05
-0.00078419506228842
-0.0014968003053953
-0.0021846756706598
-0.0028479052079539
-0.0034848937197025
-0.0040966659409741
-0.0046801397370686
-0.0052379400779466
-0.0057619840269935
-0.0062546749191355
-0.0066847337005164
0.036959610515547
0.036029237419883
0.035024105926604
0.034001806317546
0.032986337782194
0.031976151666249
0.030961772427364
0.029936575770567
0.028899099945143
0.027850982239234
0.026794466554995
0.025731198115602
0.02466217705698
0.023588133890169
0.022509838177816
0.021428221120931
0.020344360915811
0.019259416221207
0.018174574734585
0.017091039953762
0.016010036836062
0.014932815590754
0.013860647567447
0.012794820788211
0.011736633527437
0.010687389019356
0.0096483883185374
0.0086209267440593
0.0076062820985883
0.0066057204262728
0.0056204751063034
0.0046517662138775
0.0037007592364063
0.0027686169355372
0.0018564099719083
0.00096524449549592
9.6060181719125e-05
-0.00075006947516871
-0.0015723992780307
-0.0023698135798417
-0.0031418910468366
-0.0038872843802
-0.0046061788547699
-0.0052965210646
-0.0059596959000828
-0.0065916305308515
-0.0071957691432224
-0.0077612753849109
-0.0082910442499697
-0.0087424854216053
0.038499895829489
0.037488104762306
0.036382491504495
0.035259515568473
0.03415002965294
0.033051023146183
0.031949500369639
0.030836654926812
0.029710599617266
0.028573421992093
0.027427859915909
0.026275775015849
0.025118160340487
0.023955668449188
0.022789015465749
0.02161912629605
0.02044710451274
0.019274143367945
0.018101462398478
0.016930294464604
0.015761895769561
0.014597552502444
0.013438576964127
0.012286303115228
0.01114207984259
0.010007265747944
0.0088832215273612
0.0077713075769294
0.0066728700395188
0.0055892492548769
0.0045217552925926
0.0034716935380603
0.0024403133037771
0.0014288751858732
0.00043853852408901
-0.00052947638923848
-0.0014741435347933
-0.0023942485796826
-0.0032889766528585
-0.0041570218723145
-0.0049979445144487
-0.0058101032353087
-0.0065937951872093
-0.0073464341613151
-0.0080698148578426
-0.008758709822572
-0.0094174997801098
-0.010032118355248
-0.010605940342143
-0.011082863342501
0.040206674114324
0.039106179049593
0.037889447049531
0.036655475162332
0.035442948560006
0.034246827632982
0.033049870985393
0.031840783242355
0.030617294762681
0.029382086807888
0.028138480404687
0.026888567582041
0.025633313394523
0.024373272513816
0.023109101516473
0.021841722676236
0.020572269935706
0.019301973724436
0.018032085394324
0.01676386555077
0.015498599920091
0.014237609470054
0.012982246775247
0.011733891349946
0.010493942333787
0.0092638131776375
0.0080449239308279
0.0068387003228111
0.005646558780501
0.0044699175646644
0.0033101673219233
0.0021687032429016
0.0010468646924316
-5.3982656291494e-05
-0.0011325825981655
-0.0021875890579368
-0.0032178784875292
-0.0042220794388272
-0.0051992955344558
-0.0061480054855578
-0.0070677422983417
-0.0079565283643489
-0.0088147770991426
-0.0096392898791973
-0.010432312508841
-0.011187290738813
-0.011909652821947
-0.012581601135546
-0.013206953198979
-0.013713684063417
0.042080016292489
0.040884046075449
0.039545842652265
0.038190972737642
0.036866906400541
0.035565861304064
0.034265552997349
0.032951911689865
0.031622376851272
0.03028039398234
0.028929957084654
0.027573391305694
0.026211603842409
0.024845031604798
0.023474270036796
0.022100245853133
0.0207241301634
0.019347193102898
0.017970717032057
0.016595988706249
0.015224321838539
0.013857070630777
0.012495626446436
0.011141413065771
0.0097958796741143
0.0084604944091184
0.0071367363617824
0.0058260959938625
0.0045300598666953
0.0032501249665547
0.0019877665111777
0.00074447427728706
-0.00047831662132751
-0.0016791290655186
-0.0028566004698632
-0.004009249492682
-0.0051358423729415
-0.0062348348756837
-0.0073052335770502
-0.0083452775684511
-0.0093544586058411
-0.010330421594685
-0.011273693897054
-0.012180385814718
-0.013053223903786
-0.013884147885972
-0.014679712981615
-0.01541785398813
-0.016102704667891
-0.016643684305281
0.044119625723725
0.042821925187316
0.041352244416367
0.039867089404743
0.038423586134756
0.037010327210124
0.035599130933706
0.034172912214646
0.032728971826846
0.031271716047565
0.029805894571444
0.028334053243815
0.026857004726277
0.025375049081615
0.023888723835291
0.022398972395075
0.020907011498379
0.019414153150342
0.017921709597201
0.016430991766975
0.014943340094243
0.013460141340093
0.011982824725398
0.01051285551993
0.0090517286551607
0.0076009627165615
0.0061620969226011
0.0047366888326037
0.0033262958921548
0.0019324923810264
0.00055683753994841
-0.00079908347574401
-0.0021337330749948
-0.0034455176076788
-0.004732958610603
-0.0059944316686601
-0.0072285774974146
-0.0084336668017413
-0.0096085883430151
-0.010751319821082
-0.011861288998951
-0.012935723327694
-0.0139752511776
-0.014975212381025
-0.015938839865938
-0.016856394302653
-0.017735652262113
-0.018549750828096
-0.019302982282018
-0.01988337040231
0.04632432172035
0.044919183094727
0.043308481364652
0.041684318052844
0.040114197704013
0.038582013085981
0.037052795665785
0.035506282052846
0.03393986283646
0.032359123634392
0.030769636860945
0.029174136247204
0.02757329508328
0.025967262718228
0.024356530529237
0.022742075160473
0.021125168854026
0.019507167154249
0.017889409590215
0.016273228521255
0.014659988756376
0.013051108135047
0.011448054013284
0.0098523380373016
0.0082655036659083
0.0066890973938166
0.0051247096156742
0.0035739669012231
0.0020385039951972
0.00051997459711926
-0.000979978977786
-0.0024596796420968
-0.0039174864555549
-0.0053516876625636
-0.0067606783995534
-0.0081426872518351
-0.0094962127313117
-0.01081933248663
-0.012110791024951
-0.013368288945401
-0.014591155929869
-0.015776168118613
-0.016924025709763
-0.018029218603678
-0.019095494390194
-0.020111226780666
-0.021085515578114
-0.021986077712638
-0.02281729567367
-0.02344261220626
0.048691639232265
0.047173941292062
0.045413287906998
0.043642241708482
0.04193917492563
0.040281996939237
0.038628062820069
0.036953880808429
0.035257247606821
0.033545162333667
0.03182405986513
0.030096803584528
0.028363878403137
0.026625277407484
0.024881467116954
0.023133479998867
0.021382654002435
0.019630388767783
0.017878049166295
0.016126987496014
0.014378591271082
0.012634304036483
0.010895621583262
0.0091640868178767
0.0074413516799871
0.0057289491559804
0.0040285177104054
0.002341734285762
0.00067030116728666
-0.00098404553910106
-0.0026195770621104
-0.0042345245606192
-0.0058271444485258
-0.0073956092706721
-0.0089381845677199
-0.010452949474366
-0.011938245772353
-0.013391954312314
-0.01481264792228
-0.016197740498062
-0.017546419943238
-0.018854985060479
-0.020124157196923
-0.02134750835856
-0.022529280513925
-0.023655781277561
-0.024737501807933
-0.025736105857868
-0.026655898697219
-0.027332324048764
0.051217500995139
0.049582765151211
0.047664030157852
0.045739291616102
0.043897949488992
0.042110424041438
0.040325550708688
0.038516717418762
0.036682540832942
0.034831668382027
0.032971397003438
0.03110463400216
0.029231625097557
0.027352215301913
0.025466880787084
0.023576736370553
0.02168319545982
0.019787701117547
0.017891640451
0.015996386306307
0.014103351868747
0.012214014859633
0.010329908193443
0.0084526036268524
0.0065836409419844
0.0047247815469673
0.0028776912418706
0.0010440680991751
-0.0007743467555306
-0.0025757537443315
-0.0043583451507874
-0.0061202561481211
-0.0078596458311733
-0.0095745692469125
-0.01126316862496
-0.012923368289074
-0.014553353424383
-0.01615079678139
-0.017714085643433
-0.019240334387605
-0.020728551842836
-0.022174538822682
-0.023578975322695
-0.024934455898715
-0.026245650700179
-0.027496620599518
-0.028699189336999
-0.029808379023991
-0.03082789632453
-0.031561512393303
0.053896005017219
0.052140452843571
0.05005651569191
0.047972570390697
0.045988769531185
0.044066318654256
0.042144797104261
0.040194779820764
0.038216216766843
0.036219621829784
0.03421309870413
0.032199483974776
0.030178740797359
0.028150593258164
0.026115573000002
0.024074907330578
0.022030093328494
0.019982614892647
0.017933880901785
0.01588528409763
0.013838264119123
0.011794324722479
0.0097550188654764
0.0077219451135918
0.0056967265081994
0.0036810690141224
0.0016766990036641
-0.00031461676592822
-0.0022910979738386
-0.0042508989379917
-0.0061921580751661
-0.0081129197772994
-0.010011263007214
-0.011885116487242
-0.013732525012082
-0.015551234460736
-0.017339305177563
-0.019094159906567
-0.020814032045722
-0.022495680197139
-0.024137947725416
-0.025736080776932
-0.027290690147635
-0.028793326903042
-0.030249047329853
-0.031639487124066
-0.032977895923719
-0.034212024298656
-0.035345002526147
-0.036145039145003
0.056719278411894
0.054839915344864
0.052584902376951
0.05033776367969
0.048208591920385
0.046147454481788
0.044084122627905
0.041986910732971
0.039857704077601
0.037709051467856
0.035549737164912
0.033382389935333
0.031206665847612
0.029022222293961
0.026829706426053
0.024630486111556
0.022426145713427
0.020218207545504
0.018008101354377
0.015797244893914
0.01358710739128
0.011379221900404
0.0091751666691006
0.006976560839053
0.0047850509583668
0.0026023505185217
0.00043021103266467
-0.0017295691116196
-0.0038751838262629
-0.0060047399581948
-0.0081163395913562
-0.010207947239435
-0.012277594836495
-0.014323075525207
-0.016342381965219
-0.018333041895899
-0.02029307030265
-0.022219543483686
-0.024110663003818
-0.025962665597986
-0.027774383482455
-0.029540294411766
-0.031261071863355
-0.032927022205885