/*--------------------------------*- C++ -*----------------------------------*\
| =========                 |                                                 |
| \\      /  F ield         | OpenFOAM: The Open Source CFD Toolbox           |
|  \\    /   O peration     | Version:  2112                                  |
|   \\  /    A nd           | Website:  www.openfoam.com                      |
|    \\/     M anipulation  |                                                 |
\*---------------------------------------------------------------------------*/
FoamFile
{
    version     2.0;
    format      ascii;
    arch        "LSB;label=32;scalar=64";
    class       surfaceScalarField;
    location    "15.9";
    object      phi;
}
// * * * * * * * * * * * * * * * * * * * * * * * * * * * * * * * * * * * * * //

dimensions      [0 3 -1 0 0 0 0];

oriented        oriented;

internalField   nonuniform List<scalar> 
43645
(
0.39512397467755
-5.1015884500555e-06
0.39513913490687
-1.5160199215847e-05
0.39516426433627
-2.5129396820997e-05
0.39519932496658
-3.5060596687946e-05
0.39524427913814
-4.4954137823613e-05
0.39529908685356
-5.4807682081521e-05
0.39536370338992
-6.4616503743636e-05
0.3954380817002
-7.4378278485118e-05
0.39552217250441
-8.409077332993e-05
0.39561592675474
-9.3754220367042e-05
0.39571928876399
-0.0001033619802527
0.39583220017073
-0.00011291137867109
0.39595458841352
-0.00012238821565861
0.39608638120459
-0.00013179276480762
0.39622748237918
-0.00014110114919078
0.39637780641003
-0.00015032400622008
0.39653722464797
-0.00015941821404546
0.39670564889844
-0.00016842422721717
0.39688290928824
-0.00017726036711397
0.39706894546183
-0.0001860361513454
0.39726351727627
-0.00019457179259402
0.39746663882702
-0.00020312152915187
0.39767790593227
-0.00021126708384566
0.39789750127618
-0.00021959532255957
0.39812465276671
-0.00022715146917713
0.39835996454719
-0.00023531175900545
0.39860187704315
-0.0002419124742974
0.39885204153691
-0.00025016447211002
0.39910717415071
-0.00025513259228603
-0.00026418562610414
0.39937135979894
0.37294728415801
-9.8309587432796e-06
0.37296139114124
-2.9267131786049e-05
0.37298498048024
-4.8718684254011e-05
0.37301801390233
-6.8093967305176e-05
0.37306045246089
-8.7392645629835e-05
0.37311226280087
-0.00010661797230461
0.3731734110296
-0.00012576468387278
0.37324386271796
-0.00014482991944215
0.37332358187962
-0.00016380988883988
0.3734125328301
-0.00018270512594057
0.37351067324871
-0.00020150235523541
0.3736179583802
-0.00022019646775196
0.37373433010371
-0.00023875989799969
0.37385973159648
-0.00025719421754732
0.37399408367373
-0.0002754531875388
0.37413731879931
-0.00029355909389171
0.37428932796273
-0.00031142734050466
0.37445004262932
-0.00032913885763866
0.37461931425514
-0.00034653195748799
0.37479710170158
-0.00036382356288701
0.37498318705518
-0.00038065711176616
0.37517760110913
-0.00039753554896484
0.37537996502877
-0.0004136309695673
0.37559047413775
-0.00043010439766847
0.37580839245271
-0.00044506975023458
0.37603432835074
-0.00046124762295011
0.37626678631181
-0.00047437040104369
0.37650739960167
-0.00049077772775429
0.37675301677958
-0.00050074973676489
-0.00051884272731316
0.37700767391547
0.3520154789455
-1.4412330578816e-05
0.35202910006718
-4.288820172079e-05
0.3520517529118
-7.1371476972e-05
0.35208341947265
-9.9760476911351e-05
0.35212407681404
-0.0001280499368875
0.35217370174481
-0.00015624285424007
0.35223227095191
-0.00018433384354757
0.35229976430766
-0.00021232322918857
0.35237616328415
-0.00024020882080859
0.35246145130929
-0.00026799310799573
0.35255560534251
-0.00029565634685285
0.35265860068563
-0.000323191770662
0.35277039986693
-0.00035055904048988
0.35289096923049
-0.00037776354356505
0.35302025368925
-0.00040473760997581
0.35315821362124
-0.00043151899062241
0.35330476703014
-0.00045798071512781
0.35345987727869
-0.00048424907268625
0.35362342180121
-0.00051007644720054
0.35379539325177
-0.00053579498110628
0.35397559268707
-0.00056085651508665
0.35416408817601
-0.00058603100607737
0.3543605073683
-0.00061005013007534
0.35456509633763
-0.00063469333506814
0.3547771029929
-0.00065707637332627
0.35499721890287
-0.00068136350030913
0.3552238795757
-0.00070103104076505
0.35545886660377
-0.00072576472255041
0.35569883240224
-0.00074071550258185
-0.00076808386399842
0.35594807357319
0.33225845169963
-1.8820026277365e-05
0.33227154437326
-5.5980828595178e-05
0.3322932913524
-9.3118409207621e-05
0.3323236750136
-0.00013014409174955
0.33236268027777
-0.00016705515566436
0.33241029549026
-0.00020385802244176
0.33246651172206
-0.00024055003227077
0.33253132704034
-0.00027713850561798
0.3326047442535
-0.00031362599341338
0.33268677015969
-0.00035001897487743
0.33277740552804
-0.00038629167720818
0.33287665085786
-0.00042243706370688
0.33298449475345
-0.00045840290054606
0.33310093321002
-0.00049420196571794
0.33322594188674
-0.00052974625336735
0.3333595173409
-0.00056509441239079
0.33350161218571
-0.00060007552843174
0.33365223160656
-0.00063486846272053
0.33381128606413
-0.00066913087457632
0.33397881304492
-0.00070332193213718
0.33415463652183
-0.00073667996257948
0.33433887471561
-0.00077026917058921
0.33453115974284
-0.00080233512811588
0.33473180769389
-0.00083534125682239
0.3349400384574
-0.00086530710738539
0.33515666389581
-0.00089798890892396
0.33538002160664
-0.00092438872143548
0.33561212427649
-0.00095786736219656
0.33584937063162
-0.00097796182819144
-0.0010152475478139
0.33609653434643
0.31361028729846
-2.3049906003338e-05
0.31362283742235
-6.8530911486999e-05
0.31364366587897
-0.00011394682490866
0.31367276170547
-0.00015923987798555
0.31371011870239
-0.00020441211334457
0.31375573707233
-0.00024947635424589
0.31380962399066
-0.00029443691368854
0.31387179899619
-0.00033931347545361
0.31394229040629
-0.0003841173690947
0.31402113299628
-0.00042886153167561
0.31410835604546
-0.00047351469446919
0.31420399032522
-0.00051807131270658
0.31430805586916
-0.00056246841490625
0.31442058454136
-0.00060673060936646
0.31454158922393
-0.00065075090839064
0.31467111033173
-0.00069461549346986
0.31480914242729
-0.0007381075980352
0.31495574157131
-0.00078146758134448
0.31511085862738
-0.00082424790575349
0.31527458628542
-0.00086704956556829
0.31544677751733
-0.00090887117009011
0.31562761319984
-0.00095110482870668
0.31581673303874
-0.00099145494255804
0.31601454061416
-0.0010331488075376
0.31622022476751
-0.0010709912357125
0.31643474585127
-0.0011125099672019
0.31665632567307
-0.0011459685172406
0.31688725534916
-0.0011887970120839
0.31712362280579
-0.0012143292590615
-0.0012623831058961
0.31737075839122
0.29600874190099
-2.7089911985899e-05
0.29602071265159
-8.0501625156934e-05
0.29604056052849
-0.00013379466498796
0.29606828424192
-0.00018696355520251
0.2961038886489
-0.00024001648496904
0.29614738746323
-0.00029297513416328
0.29619880591726
-0.00034585533433995
0.29625818783352
-0.00039869535934936
0.29632559059865
-0.00045152010294606
0.29640108099532
-0.00050435189809059
0.29648472102354
-0.00055715469352515
0.29657657627039
-0.00060992653139454
0.29667670305779
-0.00066259517515628
0.29678517471573
-0.00071520224105265
0.29690204737553
-0.00076762354282115
0.29702741234849
-0.00081998044178768
0.29716131329511
-0.00087200852071721
0.29730386554198
-0.00092401980479236
0.29745506801817
-0.00097545035899291
0.29761507807602
-0.0010270596007741
0.29778378492622
-0.001077577997885
0.29796144278292
-0.0011287626630995
0.298147704717
-0.00117771685436
0.29834307494616
-0.0012285190143083
0.29854671386164
-0.0012746301286521
0.29875974808264
-0.0013255441653869
0.2989802786578
-0.0013664990692938
0.29921090189002
-0.0014194202211777
0.29944737461719
-0.0014508019636739
-0.0015106345602863
0.29969562609553
0.27939506325945
-3.0918621937821e-05
0.27940638623547
-9.1824570162446e-05
0.27942514528175
-0.00015255368046103
0.27945134931913
-0.00021316756235332
0.27948501526604
-0.00027368240246084
0.27952617150003
-0.0003341313395665
0.27957486271055
-0.00039454651721007
0.27963115896163
-0.0004549915836728
0.27969514920178
-0.00051551031731456
0.27976693520666
-0.00057613787808563
0.27984661504036
-0.00063683450329873
0.27993429284357
-0.00069760431153914
0.28003006537199
-0.00075836768140027
0.28013405217559
-0.00081918902324217
0.28024635793305
-0.00087992927962599
0.28036713091563
-0.00094075340431704
0.28049647043518
-0.0010013480207944
0.2806345584156
-0.0010621077661628
0.28078144939407
-0.0011223413187889
0.28093737366281
-0.0011829838510495
0.28110226480214
-0.0012424691189258
0.28127645940351
-0.0013029572461994
0.28145963258388
-0.0013608900164255
0.28165239908746
-0.0014212854994317
0.28185390030106
-0.001476131323602
0.28206543992906
-0.0015370837744292
0.28228500914154
-0.0015860682625086
0.28251552030613
-0.0016499313664216
0.28275241319927
-0.0016876948378632
-0.0017604472188355
0.28300222587811
0.26371380014128
-3.4509287687244e-05
0.26372438759109
-0.00010241199317021
0.26374192021114
-0.00017008627391044
0.26376641586089
-0.00023766318594857
0.26379790372591
-0.00030517024196775
0.26383642776455
-0.00037265535331473
0.26388205334176
-0.00044017207024695
0.26393487794881
-0.00050781616722422
0.26399502348015
-0.00057565582591594
0.26406262837883
-0.00064374275470486
0.26413782882794
-0.00071203493111558
0.26422077001147
-0.00078054547445215
0.2643115922058
-0.0008491898558211
0.26441046481318
-0.00091806161133396
0.26451754539865
-0.00098700984643827
0.2646330440341
-0.0010562520216261
0.264757121405
-0.0011254253740489
0.2648900320285
-0.0011950183724097
0.26503189324987
-0.0012642025232725
0.26518301514407
-0.0013341057285935
0.26534338458261
-0.0014028385410394
0.26551342769673
-0.0014730003440105
0.26569285317721
-0.0015403154806837
0.26588239285054
-0.0016108251565324
0.26608118543934
-0.0016749238961508
0.26629071484007
-0.0017466131588181
0.26650888779065
-0.0018042411966458
0.26673892520009
-0.0018799687595348
0.26697599412693
-0.0019247637488671
-0.0020116607428991
0.26722720766787
0.24891261499884
-3.7831575748263e-05
0.24892237531768
-0.00011217229022711
0.24893853252414
-0.00018624345878372
0.24896111363841
-0.0002602442789948
0.2489901598914
-0.00033421647424091
0.2490257305236
-0.00040822596527604
0.24906791154362
-0.00048235307060249
0.24911682844067
-0.00055673304510919
0.24917263701508
-0.00063146438175146
0.24923551323228
-0.00070661895384412
0.24930563223704
-0.00078215391839646
0.2493831814526
-0.00085809467305189
0.24946834643038
-0.00093435481718783
0.24956134854156
-0.001011063706573
0.24966240125231
-0.0010880625417343
0.24977177968549
-0.0011656304397311
0.2498897104613
-0.0012433561351826
0.25001652494297
-0.0013218328397025
0.25015240978308
-0.0014000873492793
0.25029775974873
-0.0014794556803176
0.25045262433313
-0.0015577031116966
0.25061752392991
-0.0016378999271239
0.25079221492235
-0.0017150064595234
0.25097754844872
-0.0017961586692906
0.25117268333254
-0.0018700587663541
0.25137927778476
-0.0019532075973438
0.25159519404694
-0.0020201574450699
0.25182393407133
-0.0021087087702876
0.25206046830782
-0.0021612979721483
-0.0022635996900425
0.2523124072691
0.23494211134122
-4.0855339686301e-05
0.23495095524392
-0.00012101617481175
0.23496558986904
-0.00020087806592999
0.23498605136437
-0.00028070575661005
0.23501239255277
-0.00036055764526232
0.2350446873498
-0.0004405207452335
0.23508304172232
-0.00052070742642672
0.23512760825174
-0.00060129955815606
0.23517857567774
-0.00068243179175405
0.23523615697368
-0.00076420023413379
0.23530056644631
-0.00084656337576544
0.23537203367521
-0.00092956188704167
0.23545078967627
-0.0010131108037327
0.23553710828831
-0.0010973823044186
0.2356312602987
-0.001182214538297
0.23573358716832
-0.001267957295813
0.23584438448947
-0.0013541534431138
0.2359640625881
-0.0014415109253622
0.23609288285324
-0.0015289076016997
0.23623132726536
-0.001617900079899
0.236379517267
-0.001705893101002
0.23653806916443
-0.0017964518123458
0.2367068031593
-0.0018837404423318
0.23688668707023
-0.0019760425682456
0.23707692866491
-0.0020603003491623
0.23727934491411
-0.0021556238347446
0.23749180763168
-0.0022326201509166
0.23771805214097
-0.0023349532681113
0.23795295966579
-0.0023962054859632
-0.002515157439347
0.23820451742677
0.22175566744955
-4.3552985451261e-05
0.22176351394742
-0.00012886265822309
0.22177649196227
-0.00021385606641501
0.2217946462303
-0.00029886001041974
0.22181804026592
-0.00038395166689211
0.22184676140757
-0.00046924187307167
0.22188093405429
-0.00055488005955274
0.22192073603941
-0.00064110152985809
0.22196638712455
-0.00072808286370024
0.22201813513811
-0.00081594823467891
0.22207623149327
-0.00090465971814266
0.22214094647523
-0.00099427685641861
0.22221255594042
-0.0010847202565882
0.2222913846918
-0.0011762110436524
0.22237776042383
-0.0012685902584307
0.22247209007379
-0.0013622869340556
0.22257473941766
-0.0014568027754852
0.22268619734757
-0.0015529688439529
0.22280680394068
-0.0016495141836692
0.22293712810135
-0.0017482242295904
0.22307737205219
-0.0018461370410075
0.22322824618336
-0.0019473259328074
0.22338965219168
-0.0020451464400832
0.22356266648804
-0.0021490568541402
0.22374657991655
-0.0022442137673101
0.2239433428151
-0.0023523867230582
0.22415090390834
-0.0024401812340271
0.2243731640891
-0.0025572134390288
0.22460505249538
-0.0026280938828429
-0.0027648752569308
0.22485477032292
0.20930928028758
-4.590131185182e-05
0.20931606200692
-0.00013564436581511
0.20932727180408
-0.00022506585186192
0.20934296197645
-0.00031455017113723
0.20936320528207
-0.00040419496095899
0.2093881006338
-0.00049413721330077
0.20941778861825
-0.0005845680325862
0.20945246951108
-0.00067578241130282
0.20949239099795
-0.00076800433927926
0.20953783236748
-0.00086138959294753
0.20958907897669
-0.00095590631619775
0.20964643831416
-0.0010516361827938
0.20971022804927
-0.0011485099807255
0.20978082136941
-0.0012468043529065
0.20985860087938
-0.00134636975765
0.2099440356158
-0.0014477216598346
0.21003756078126
-0.0015503279304481
0.21013974074278
-0.0016551487951119
0.21025099643331
-0.0017607698639912
0.21037198028364
-0.0018692080698615
0.21050298318311
-0.0019771399305757
0.21064480391442
-0.0020891466543655
0.21079744412101
-0.0021977866370825
0.21096207511602
-0.0023136878397165
0.21113810932323
-0.0024202479652695
0.21132759501664
-0.0025418724073924
0.21152863672756
-0.0026412229360626
0.21174521386559
-0.002773790568526
0.2119724673274
-0.0028553473365659
-0.0030110180604113
0.21221861013938
0.1975614181896
-4.7882962512879e-05
0.1975670855928
-0.00014131175957292
0.19757644486779
-0.00023442511738533
0.19758955451826
-0.00032765981212667
0.19760649473258
-0.00042113516581473
0.1976273736377
-0.00051501610892165
0.19765234509823
-0.00060953948359949
0.19768162815255
-0.00070506545603854
0.19771549428795
-0.0008018704650775
0.19775424966455
-0.00090014495987852
0.19779820915434
-0.00099986579629637
0.19784771266654
-0.0011011396852749
0.19790311530984
-0.0012039126143099
0.19796483329256
-0.0013085223259029
0.19803330033398
-0.0014148367893916
0.1981090427144
-0.0015234640306218
0.19819256196832
-0.0016338471748118
0.19828449208709
-0.0017470789044102
0.19838533505255
-0.0018616128200934
0.19849582016935
-0.001979693177426
0.19861633345549
-0.0020976532076391
0.19874775245529
-0.002220565645239
0.19889019727921
-0.0023402314522468
0.19904491471415
-0.0024684052660868
0.1992114802684
-0.0025868135111393
0.19939199537405
-0.0027223875048784
0.19958480851469
-0.0028340360687412
0.19979387286595
-0.002982854912191
0.2000147275779
-0.0030762020413447
-0.0032516508061633
0.20025536033116
0.18647288168627
-4.9487271423191e-05
0.18647740555048
-0.00014583561594907
0.18648486565987
-0.00024188521886988
0.18649532509094
-0.0003381192352181
0.18650886927719
-0.00043467934403796
0.18652561284451
-0.00053175966812459
0.18654571949999
-0.0006296461308669
0.18656942270926
-0.00072876865697214
0.18659701277811
-0.00082946052549486
0.18662881719863
-0.0009319493718307
0.18666517484075
-0.0010362234297522
0.18670645200676
-0.001142416842498
0.18675303556777
-0.0012504961664678
0.18680537803896
-0.0013608647881549
0.18686395830005
-0.0014734170415242
0.18692935223654
-0.001588857958143
0.18700212346333
-0.0017066183926669
0.18708296708649
-0.0018279225186793
0.18717246410025
-0.0019511098250793
0.18727141087504
-0.0020786399435588
0.18738029324963
-0.0022065355737397
0.18750005392677
-0.0023403263140719
0.18763094903435
-0.0024711265517246
0.1877742761285
-0.002611732352367
0.1879298168353
-0.0027423542102863
0.18809967243954
-0.0028922431017425
0.18828253000279
-0.0030168936248383
0.18848219686773
-0.0031825217703587
0.1886948138074
-0.0032888189746236
-0.0034847131735792
0.1889278761815
0.17600667220758
-5.0710712762925e-05
0.17601004481823
-0.00014920821988273
0.17601559261895
-0.00024743301277134
0.1760233814554
-0.00034590806474897
0.17603349972796
-0.00044479760961275
0.17604606563558
-0.00054432556862738
0.17606124894243
-0.00064482943050989
0.17607929277469
-0.0007468124818679
0.17610050064471
-0.00085066838804107
0.17612521517328
-0.00095666389274747
0.17615379283769
-0.0010648010863818
0.17618661938741
-0.0011752433842637
0.17622410663989
-0.0012879834108698
0.17626673536773
-0.0014034935077969
0.17631502240027
-0.0015217040657734
0.17636958374383
-0.001643419293353
0.17643103799943
-0.0017680726399226
0.17650013123767
-0.0018970157486017
0.17657751939758
-0.0020284979767729
0.17666405317664
-0.0021651737145392
0.17676032078771
-0.002302803176902
0.17686731296545
-0.0024473184841403
0.17698543764534
-0.0025892512241852
0.17711601356374
-0.0027423082636291
0.17725907072214
-0.0028854113617979
0.17741665012653
-0.0030498224995725
0.17758787522354
-0.003188118715523
0.17777627666297
-0.0033709232038302
0.17797881071125
-0.0034913530172692
-0.0037080947833933
0.178202192327
0.16612786815544
-5.155688261626e-05
0.1661301029165
-0.00015144297488383
0.16613376035156
-0.00025109044165629
0.16613890726293
-0.00035105496985507
0.16614563257184
-0.00045152291221917
0.16615405503648
-0.00055274802688009
0.16616434659808
-0.00065512098567183
0.1661767550604
-0.00075922093763876
0.16619159123062
-0.00086550455162666
0.16620920625918
-0.00097427891453357
0.16622996731832
-0.0010855621386205
0.16625427208884
-0.0011995481477169
0.16628254966791
-0.0013162609827224
0.16631530014771
-0.0014362439802082
0.16635306983466
-0.0015594737452304
0.166396504098
-0.0016868535491045
0.1664462680113
-0.0018178365456161
0.16650314571152
-0.0019538934412326
0.16656786200152
-0.0020932142592872
0.16664130745957
-0.0022386191652751
0.16672417234583
-0.0023856680560624
0.16681747577977
-0.0025406219112837
0.16692179055083
-0.0026935659887656
0.16703842366843
-0.0028589413751137
0.16716769273115
-0.0030146804187364
0.16731151286502
-0.0031936426280387
0.16746953981435
-0.0033461456597076
0.16764489057676
-0.0035462739614614
0.16783555376342
-0.0036820161993624
-0.0039197060906838
0.16804716507559
0.15680350772177
-5.2035909110537e-05
0.15680463820745
-0.00015257345480657
0.1568064602305
-0.00025291245889831
0.15680903976552
-0.00035363449907928
0.1568124641439
-0.00045494728486418
0.15681684972825
-0.00055713360554612
0.15682236681034
-0.00066063806215183
0.15682926289519
-0.00076611701691271
0.15683785018094
-0.00087409183183755
0.1568484816179
-0.00098491034591747
0.15686152796671
-0.0010986084817942
0.15687739101293
-0.001215411188178
0.15689650902147
-0.0013353789853689
0.15691939204232
-0.0014591269950011
0.1569466064323
-0.0015866881290294
0.15697881551081
-0.0017190626213222
0.15701672069556
-0.0018557417240216
0.15706113071958
-0.0019983034589485
0.15711283013094
-0.00214491366444
0.15717273361159
-0.002298522639947
0.15724163002441
-0.0024545644631791
0.15732054619316
-0.0026195380747306
0.15741022805481
-0.0027832478455136
0.15751193778661
-0.0029606511025016
0.15762631456425
-0.003129057192396
0.15775508078773
-0.0033224088480186
0.15789851142371
-0.0034895762924844
0.15805916962689
-0.003706932161769
0.15823628687575
-0.0038591334454297
-0.0041175434184348
0.15843412420665
0.14800247887749
-5.2163851283742e-05
0.1480025565334
-0.00015265110485984
0.148002626871
-0.00025298279073117
0.1480027542277
-0.00035376185024093
0.148003022393
-0.00045521544493871
0.14800354258965
-0.00055765379728965
0.14800447974754
-0.00066157521546829
0.14800607619955
-0.00076771346464767
0.14800863991153
-0.00087665553981044
0.14801251920893
-0.00098878963946656
0.14801808157443
-0.0011041708435432
0.14802572515814
-0.001223054768105
0.14803588908572
-0.0013455429090945
0.14804908395584
-0.0014723218611357
0.14806588596583
-0.0016034901348985
0.14808696506467
-0.0017401417159238
0.14811304714156
-0.0018818237966225
0.14814495264379
-0.0020302089569396
0.14818351371344
-0.0021834747299666
0.14822965485624
-0.0023446637789145
0.14828425339427
-0.0025091629977254
0.14834832693755
-0.0026836116150401
0.14842279205422
-0.0028577129597478
0.14850883871091
-0.0030466977574225
0.14860744954876
-0.0032276680290496
0.14872009842518
-0.0034350577238455
0.14884775212288
-0.0036172299899864
0.14899228054914
-0.0038514605881148
0.14915434553088
-0.0040211984271325
-0.0042997398220382
0.14933654193492
0.13969541502864
-5.1961613895718e-05
0.13969450485201
-0.00015174092138825
0.13969293182419
-0.00025140975629584
0.13969075666328
-0.000351586683308
0.13968805784278
-0.00045251661918337
0.1396849392216
-0.00055453517161227
0.13968155726734
-0.00065819325748734
0.13967814455369
-0.00076430074798318
0.13967499934767
-0.00087351033138376
0.13967245911486
-0.00098624940469503
0.1396708817342
-0.0011025934612243
0.13967065469404
-0.0012228277264167
0.13967221015865
-0.0013470983722119
0.13967605030194
-0.0014761620028363
0.13968275048151
-0.0016101903127754
0.13969297658447
-0.0017503678170768
0.13970746523593
-0.0018963124462202
0.13972703763509
-0.0020497813542954
0.13975255649196
-0.0022089935851934
0.13978494782271
-0.0023770551083632
0.13982515680665
-0.002549371980829
0.1398741876465
-0.0027326424547083
0.13993310247344
-0.0029166277872209
0.14000301398134
-0.0031166092667253
0.14008522748473
-0.0033098815346248
0.14018095362602
-0.0035307838681354
0.1402918869316
-0.0037281632990838
0.14041911275587
-0.0039786864161652
0.14056486128099
-0.0041669469556544
-0.0044646103401564
0.14072973179618
0.13185459708543
-5.1453961027878e-05
0.13185277595083
-0.00014991977675384
0.13184968718925
-0.00024832098482283
0.13184538634701
-0.00034728583220398
0.13183994478139
-0.00044707504606517
0.13183345720107
-0.00054804758519399
0.13182606958767
-0.00065080563935975
0.13181800113521
-0.00075623229201167
0.13180953557838
-0.00086504477208695
0.13180099321947
-0.0009777070441068
0.13179271639433
-0.0010943166349704
0.13178507535874
-0.0012151866900158
0.13177848866054
-0.0013405116733302
0.13177344144374
-0.0014711147853543
0.13177049838239
-0.0016072472506555
0.13177031087112
-0.0017501803049577
0.13177361216928
-0.001899613743491
0.13178121487299
-0.002057384057214
0.13179399059895
-0.0022217693105824
0.1318128662531
-0.002395930762379
0.13183881853253
-0.0025753242607265
0.13187286148664
-0.0027666854101302
0.13191613506043
-0.0029599013632715
0.13196973837752
-0.0031702125872138
0.13203516760851
-0.0033753107701124
0.13211347353695
-0.0036090898021503
0.13220692476687
-0.0038216145353246
0.13231597677614
-0.0040877384320561
0.13244442607843
-0.004295396263964
-0.0046107723596876
0.13259058809258
0.12445385929179
-5.0666899026688e-05
0.12445121033762
-0.00014727080503048
0.12444674635993
-0.00024385698910278
0.12444051656202
-0.00034105601747456
0.12443258314991
-0.00043914161908467
0.12442302950552
-0.00053849392801688
0.12441198896906
-0.00063976509212033
0.12439966486574
-0.00074390817967269
0.12438632292209
-0.00085170282087917
0.12437226077913
-0.00096364489471929
0.12435780090286
-0.0010798567530577
0.12434329000342
-0.001200675785413
0.12432912769295
-0.0013263493579634
0.12431577250421
-0.001457759591781
0.12430377163254
-0.0015952463741598
0.12429374912344
-0.0017401577910012
0.12428642499206
-0.0018922896072925
0.12428258941965
-0.0020535484801579
0.12428310568523
-0.0022222855718768
0.12428889870625
-0.0024017237797123
0.12430093429983
-0.0025873598514502
0.12432027822588
-0.0027860293344363
0.12434803341627
-0.0029876565532092
0.12438546089928
-0.0032076400712759
0.12443394279811
-0.0034237926714946
0.12449478857882
-0.0036699355869168
0.12457008910364
-0.0038969150653105
0.12466050027737
-0.0041781496114252
0.12477057410433
-0.0044054700959061
-0.0047376417779235
0.12489744351869
0.11746850438594
-4.9627480548826e-05
0.11746511257549
-0.00014387896327541
0.11745941994711
-0.00023816432801846
0.11745146723251
-0.00033310327134035
0.11744130799607
-0.00042898235339461
0.11742901371682
-0.00052619962209459
0.11741470069117
-0.00062545204230192
0.11739855366089
-0.00072776112738054
0.1173808169667
-0.0008339661064608
0.11736176072483
-0.00094458863394515
0.11734168642826
-0.0010597824385598
0.11732091242157
-0.0011799017614041
0.11729981545
-0.0013052523694426
0.11727881645329
-0.001436760578314
0.1172584434357
-0.0015748733399233
0.11723927568991
-0.0017209900286696
0.1172220213288
-0.0018750352298272
0.11720741876329
-0.0020389458986545
0.11719633063042
-0.0022111974235829
0.11718964206416
-0.002395035198943
0.11718831104039
-0.0025860288143594
0.11719343860795
-0.0027911568902417
0.11720601679452
-0.0030002347297748
0.11722762871511
-0.0032292519838792
0.11725916372821
-0.0034553276786396
0.11730305582375
-0.0037138276785841
0.11735967007171
-0.0039535293110751
0.11743211436121
-0.0042505938996303
0.1175212681315
-0.004494623864452
-0.004846546314049
0.11763017267146
0.11087522570737
-4.836824717977e-05
0.11087118229223
-0.00013983549783423
0.11086441199919
-0.00023139398257156
0.11085494225619
-0.0003236334770602
0.11084282456888
-0.00041686461731806
0.11082812406554
-0.00051149907283547
0.11081093333283
-0.00060826126639192
0.11079141110637
-0.00070823886002364
0.11076977656433
-0.00081233152536719
0.1107462715419
-0.00092108357384564
0.1107211791579
-0.0010346900178881
0.11069478554319
-0.0011535081106868
0.11066743995071
-0.0012779067414204
0.11063951620659
-0.0014088367989631
0.11061152235938
-0.0015468794577458
0.11058397447201
-0.001693442106613
0.11055757989582
-0.0018486406193943
0.11053298309777
-0.0020143490669761
0.11051109203782
-0.0021893063309928
0.1104926540047
-0.0023765971345358
0.11047873870823
-0.002572113488411
0.11047027549221
-0.0027826936469279
0.11046836924281
-0.0029983284555612
0.11047460353411
-0.0032354862530024
0.11048951680606
-0.0034702409311746
0.11051693494981
-0.0037412458057823
0.11055459238309
-0.0039911867303079
0.11061200404857
-0.0043080055526623
0.11067620676325
-0.0045588265666879
-0.0049406023645239
0.11077026282951
0.1046520288255
-4.6931042824693e-05
0.10464744966249
-0.00013525626429993
0.10463976204675
-0.0002237062949909
0.10462897963513
-0.00031285099503116
0.10461516118224
-0.00040304609657328
0.10459837915178
-0.00049471697730988
0.10457871444916
-0.00058859650128463
0.10455627444392
-0.00068579879441709
0.10453122710104
-0.00078728412378252
0.1045038073931
-0.00089366380840043
0.10447429054508
-0.00100517311324
0.10444292748334
-0.0011221449929614
0.10441003472589
-0.001245013928464
0.10437593673242
-0.001374738750422
0.10434111393018
-0.00151205660084
0.10430600744727
-0.0016583355695779
0.10427132226309
-0.0018139553817924
0.1042375770178
-0.0019806037693297
0.10420577020307
-0.0021574994653933
0.10417640049895
-0.0023472273816743
0.10415085384363
-0.0025465667869973
0.10412949169995
-0.0027613314603441
0.10411423206628
-0.0029830687823604
0.10410540373533
-0.0032266578860679
0.10410510741054
-0.0034699445740493
0.10411514875861
-0.0037512871253858
0.10413486980081
-0.0040109077475527
0.10417689948834
-0.0043500352176847
0.10422051656387
-0.0046024436202102
-0.0050213309192513
0.10430124514591
0.098778119861308
-4.5332558886062e-05
0.098773143577953
-0.00013027989726963
0.098764698465599
-0.00021526109853895
0.098752824161428
-0.00030097660834106
0.098737564814218
-0.00038778666913872
0.098718986432701
-0.00047613851791122
0.098697234273019
-0.00056684426573919
0.098672385482513
-0.00066094992958986
0.098644414943809
-0.00075931351184757
0.098613628065119
-0.00086287685719886
0.098580282671384
-0.00097182764748473
0.098544596366957
-0.0010864586168537
0.098506854578481
-0.0012072720686288
0.098467343133223
-0.0013352272341168
0.098426499777879
-0.0014712131748975
0.098384699387095
-0.0016165351087816
0.098342610177026
-0.0017718661026759
0.098300643950553
-0.0019386374752385
0.098259833275516
-0.002116688724964
0.098220444135548
-0.0023078381793571
0.098184165006006
-0.0025102875990619
0.098150683257318
-0.0027278496577372
0.098123108315993
-0.0029554937918857
0.098099498361659
-0.003203047887368
0.098086069404916
-0.0034565155778739
0.09807693373599
-0.0037421514222132
0.098083740769354
-0.0040177147514205
0.09809419179379
-0.0043604862155015
0.098123164931894
-0.0046314167312579
0.098225425795929
-0.0051235917501022
0.39473235027534
0.0046390095460645
0.3902528350438
0.0044795152536954
0.38593729196472
0.0043155431012911
0.381790085936
0.0041472060512443
0.37781544226173
0.0039746436972086
0.37401744627689
0.0037979960082645
0.37040003336688
0.0036174129339173
0.36696697836264
0.0034330550286536
0.36372188844543
0.0032450899420633
0.36066819920367
0.0030536892670536
0.35780917193208
0.0028590272972379
0.35514789065869
0.0026612812993645
0.35268725868692
0.0024606319979975
0.35042999471859
0.0022572639947658
0.34837862897468
0.0020513657704456
0.34653549942903
0.0018431295722525
0.34490274827634
0.0016327511792586
0.34348231854769
0.0014204297551589
0.34227595074426
0.0012063678297664
0.34128517940262
0.00099077136780177
0.34051132895013
0.00077385047836966
0.33995550806346
0.0005558209122804
0.33961859717753
0.00033691091118956
0.33950119211384
0.00011740508863838
0.33960386762787
-0.00010267548944772
0.33992696982463
-0.00032310217251332
0.34047040769114
-0.00054343784261687
0.34123396193554
-0.00076355422082654
0.34221719538924
-0.0009832334304639
0.34341944225112
-0.0012022468389258