/*--------------------------------*- C++ -*----------------------------------*\
| =========                 |                                                 |
| \\      /  F ield         | OpenFOAM: The Open Source CFD Toolbox           |
|  \\    /   O peration     | Version:  2112                                  |
|   \\  /    A nd           | Website:  www.openfoam.com                      |
|    \\/     M anipulation  |                                                 |
\*---------------------------------------------------------------------------*/
FoamFile
{
    version     2.0;
    format      ascii;
    arch        "LSB;label=32;scalar=64";
    class       volScalarField;
    location    "6.7";
    object      p;
}
// * * * * * * * * * * * * * * * * * * * * * * * * * * * * * * * * * * * * * //

dimensions      [0 2 -2 0 0 0 0];

internalField   nonuniform List<scalar> 
22000
(
0.035146273092112
0.035125694931756
0.035083167679079
0.035017569489621
0.034928426160872
0.034815808639278
0.034679990717701
0.034521249726285
0.034339819610071
0.034135899036767
0.033909668735753
0.033661317677084
0.033391054097464
0.033099116503858
0.032785766631095
0.032451306190909
0.032096053174118
0.031720366940875
0.031324594030402
0.030909136481844
0.030474344849516
0.030020677918618
0.029548468020925
0.029058275270548
0.028550367710936
0.028025503200263
0.027483776545036
0.026926325558201
0.02635279090866
0.025764995065954
0.035532594568357
0.035510874523211
0.035466944807511
0.035399789373213
0.035308900352102
0.03519427773675
0.035056139373135
0.03489472711628
0.034710246654792
0.034502873536018
0.034272774432384
0.034020135350264
0.033745164599431
0.033448101621334
0.033129201656935
0.032788757879027
0.032427068515071
0.032044479427963
0.031641314539183
0.031217976096675
0.030774800056989
0.030312269853116
0.029830702888951
0.029330708573285
0.028812513982892
0.02827695433181
0.027724007163085
0.027154925178889
0.026569036284337
0.025968290199071
0.036241230918671
0.03621872156531
0.03617326576129
0.036103906537341
0.036010171757393
0.035892062921143
0.035749780144524
0.035583542471893
0.035393533754689
0.035179912749767
0.034942831451691
0.034682463193605
0.034399000420558
0.034092669341464
0.033763707567369
0.033412397636982
0.033039018981739
0.03264391380717
0.032227386024333
0.031789847021525
0.031331606881316
0.030853178692094
0.030354836501799
0.029837258396973
0.02930058528219
0.028745801016275
0.028172683466871
0.027582786163495
0.026974902029377
0.026351430025721
0.03722653796783
0.037203154753052
0.037155931296088
0.037083885072847
0.036986546143383
0.036863926900316
0.036716224922885
0.03654364102417
0.036346331977659
0.03612442965527
0.03587805897502
0.035607369459119
0.035312526980045
0.034993735219201
0.034651202383568
0.034285190390572
0.033895946524577
0.033483800947156
0.033049023261086
0.032592029728544
0.03211308909822
0.031612748533865
0.031091220528557
0.030549270915997
0.029986921446053
0.029405347142293
0.028804042011835
0.028184934561111
0.02754603508249
0.026890277692441
0.038449327713139
0.038424960868189
0.03837574113805
0.038300643349584
0.03819917981339
0.038071359472491
0.037917369049538
0.037737385095099
0.037531529915828
0.037299899434234
0.03704258031705
0.03675968606922
0.036451341755258
0.036117714619898
0.03575896810322
0.035375330200672
0.03496700030034
0.034534284423305
0.034077401036271
0.033596761288298
0.033092573878282
0.032565414169895
0.03201540998993
0.031443417250937
0.030849302756672
0.030234456384363
0.029598017046276
0.028942362101546
0.028264543124681
0.02756818697267
0.039875239791799
0.039849835178541
0.03979850509424
0.039720175489752
0.039614331970724
0.039480970047243
0.039320255387602
0.039132330128018
0.038917271043588
0.038675125624061
0.038405927095176
0.038109735877679
0.037786617051465
0.037436682108974
0.037060028694324
0.036656830287179
0.036227215446095
0.035771444951956
0.035289662353858
0.034782253814688
0.034249344208329
0.033691520247089
0.033108800964601
0.03250212401491
0.031871173286479
0.031217565681529
0.030540033811675
0.029841464022734
0.02911780097659
0.028373484883672
0.041473474491507
0.041447049129138
0.041393639217122
0.041312118587951
0.041201939621467
0.041063075109514
0.040895658142521
0.040699782984861
0.040475465073285
0.040222685754876
0.039941405016009
0.03963160904877
0.039293279918645
0.038926449327947
0.038531123300813
0.038107394318283
0.037655292120665
0.03717500401913
0.03666656970521
0.036130321561132
0.03556627254493
0.034974992990007
0.034356367536303
0.033711391781787
0.033039540320883
0.032342649128637
0.031618999176637
0.030872014799451
0.030096394031586
0.029297464287627
0.043215819524051
0.043188464541869
0.043133155205672
0.04304871080932
0.042934543057661
0.042790591686441
0.042616944511959
0.042413632544239
0.042180591764616
0.041917717442969
0.041624874475634
0.041301951020594
0.040948819782582
0.040565404052622
0.040151587666857
0.039707349469431
0.039232586984078
0.038727377839975
0.038191622787892
0.03762556077932
0.037029058555582
0.036402627937093
0.035745988381451
0.035060152272381
0.034344357071428
0.033600626037842
0.032826746159492
0.032026682601258
0.031193756780904
0.030334226192149
0.045075994747968
0.045047872265784
0.044990987435985
0.044904103421945
0.044786584068914
0.044638325759796
0.04445935792635
0.044249632063087
0.044008985630545
0.043737206557534
0.043434040881279
0.043099252167374
0.04273257428451
0.042333789433185
0.041902624472893
0.041438906071341
0.04094236082602
0.04041291229536
0.039850281254878
0.039254562607908
0.038625436102833
0.037963298508251
0.037267667762678
0.036539512258014
0.035777800504172
0.034984689615753
0.034157430190518
0.033300505465517
0.032405732167398
0.031480304091266
0.047029270294349
0.047000608180604
0.046942605233143
0.046853968309355
0.046734007320045
0.04658256565287
0.046399601109712
0.046184968995583
0.045938388914336
0.045659519649646
0.045347963736518
0.045003332187969
0.044625188805291
0.04421313949114
0.043766716525154
0.043285551358911
0.042769156797649
0.042217250554268
0.041629327139042
0.041005275846434
0.040344542565098
0.039647337358906
0.038912932691701
0.03814217420789
0.037333722743876
0.036489792053315
0.035607047980525
0.034690444191478
0.033730153992213
0.032734274761314
0.049052295611312
0.049023378814446
0.048964833157025
0.048875310245864
0.048754062111883
0.04860087030537
0.048415607813293
0.048198017581128
0.047947683077823
0.047664113085814
0.047346742790283
0.046995002898667
0.046608255955566
0.046185895404549
0.045727220308987
0.045231621006683
0.044698351129963
0.044126864905066
0.043516379979555
0.042866508708151
0.042176410086464
0.04144602190931
0.040674319763068
0.039861928181346
0.03900715110186
0.038112160732668
0.037172976308284
0.036194949400199
0.03516645076772
0.034096404792593
0.051123076520031
0.051094238122449
0.051035821386584
0.050946428058743
0.05082525143932
0.050672003701348
0.050486460970406
0.050268239260323
0.05001676979995
0.049731392732169
0.049411354597818
0.049055879770123
0.04866410045639
0.048235162246805
0.04776809354006
0.04726199697604
0.046715821051012
0.046128695701095
0.045499508300101
0.044827515526706
0.044111531695202
0.043351123485309
0.042544910230598
0.041693180222646
0.040793818457206
0.039848836057396
0.038853524136127
0.037813537352539
0.036715254651363
0.035568301181101
0.053221034722659
0.053192645370419
0.053135101950366
0.05304696713404
0.052927377664913
0.052775970319135
0.052592414530648
0.052376188251742
0.052126558357646
0.051842681333403
0.051523597321096
0.051168301855734
0.050775671734567
0.050344572250519
0.049873727466687
0.049361907210928
0.048807711515239
0.048209884269299
0.047566929146903
0.046877664309287
0.046140497541739
0.045354516968143
0.044517918521733
0.043630523162675
0.042689721313034
0.041697225232599
0.040647492527678
0.039546362978859
0.038377996489721
0.037152535254397
0.055327114379525
0.055299566863831
0.055243688819299
0.055158016963496
0.055041635695954
0.054894102934318
0.054714974671245
0.054503583337576
0.054259023960591
0.053980259849896
0.053666112995667
0.053315332743841
0.05292652092318
0.052498235408173
0.052028868155155
0.051516815544991
0.050960291045982
0.050357593109173
0.049706791468897
0.049006182080651
0.048253703633488
0.047447853133413
0.046586328799308
0.045668343570736
0.044690703818427
0.043654667211767
0.042553729149903
0.04139377469553
0.040156474793065
0.038852236939425
0.057423910618302
0.05739760725893
0.057344207021457
0.057262236517353
0.057150734935199
0.057009180341154
0.056837011890899
0.056633413546889
0.056397306496121
0.056127457181383
0.055822464331046
0.055480821232428
0.055100842971635
0.054680759865264
0.054218611878481
0.053712388795476
0.053159887003291
0.0525589066157
0.051907039067463
0.051201978327062
0.050441134079045
0.049622299246936
0.048742597487045
0.047800485833728
0.046792084799676
0.045718030318196
0.044570701920552
0.043355866881313
0.042052401703329
0.040670648236883
0.059495790139032
0.059471129372981
0.05942101337318
0.059343976223677
0.059239021206005
0.059105548829792
0.058942882048254
0.058750058059185
0.058525827851804
0.058268763613042
0.057977243129
0.057649501589266
0.057283564869237
0.056877325349356
0.056428460519197
0.055934530262111
0.055392893174305
0.054800808502453
0.05415535378105
0.053453550026963
0.052692224369068
0.051868357173594
0.050978422475442
0.050019973072319
0.048988335717251
0.047883348742506
0.046696102001727
0.045432058831434
0.044066960286586
0.042610659222684
0.061528982610418
0.061506346875787
0.061460290361931
0.061389374159649
0.061292577133035
0.061169226719232
0.061018534243033
0.060839397343288
0.06063040668829
0.060389949180118
0.060116190909492
0.059807114912801
0.059460464767647
0.059073795454663
0.058644423412534
0.058169467556745
0.057645839294872
0.057070228083199
0.056439173485838
0.055748966270115
0.054995807602114
0.054175767465879
0.053284600996862
0.052318812614962
0.051272824367529
0.050145503845802
0.048926468212292
0.047620677595489
0.046200372924268
0.044674380893644
0.06351163114397
0.063491375119736
0.063450099900505
0.063386414731577
0.063299287154089
0.063187978129134
0.063051594459568
0.062888905488682
0.062698357659817
0.062478169225042
0.062226311622477
0.061940529756634
0.061618299923985
0.061256850886959
0.060853150634474
0.060403881323643
0.059905510641674
0.059354145904252
0.058745777769513
0.058075928542506
0.057340142220421
0.056533501544142
0.055650979777954
0.054687907465711
0.053637681461353
0.052498029034848
0.051256896924391
0.049918555509084
0.048451401016755
0.046862616443862
0.065433798765674
0.065416241253749
0.065380396615901
0.065324944892372
0.065248858291301
0.065151340896641
0.065031405337595
0.064887706709646
0.064718565903372
0.064522053920782
0.064295972144799
0.064037851766243
0.063744926077612
0.063414119414792
0.063042073050506
0.062625051586513
0.06215909527576
0.061639737834304
0.06106242157298
0.060421889482916
0.05971300424902
0.058929822794237
0.05806647213277
0.057117036398733
0.056073748660811
0.054933064797974
0.053680981558439
0.052320878758397
0.050816961790967
0.049174239440315
0.067287424262294
0.067272844374636
0.067242998687862
0.06719665878567
0.067132815726417
0.06705062841316
0.066949031386544
0.066826585979508
0.066681510838634
0.066511753978175
0.066314974176395
0.066088519537374
0.0658294130451
0.065534308132175
0.065199549930468
0.064821019412177
0.064394355023123
0.063914550546781
0.063376508612514
0.062774221623588
0.062101842020372
0.061352425944123
0.060519154231775
0.059594902381279
0.058570535271445
0.057441318209165
0.056190850750379
0.054821524827274
0.053292463987134
0.051606024306893
0.069066229027147
0.069054869592159
0.069031507668816
0.068995025004217
0.068944451212767
0.06887891216469
0.068797276421837
0.068698029443779
0.068579313458038
0.068438986254871
0.068274602854121
0.068083367746751
0.067862133545842
0.067607324518959
0.067315028474537
0.066980786797022
0.066599867788798
0.06616677899691
0.065675898491952
0.065120542705476
0.064494116122883
0.063788793994953
0.062996637538321
0.062109531927752
0.061116516813487
0.060012231114297
0.058777026061466
0.057413494563981
0.055873106581893
0.054155071957627
0.070765573907326
0.070757642034212
0.070741175780644
0.070715159758177
0.070678688330088
0.070630884254097
0.070570572247407
0.070496177590312
0.070405776637034
0.070297153403716
0.070167792834093
0.070014802768434
0.069834924080056
0.069624412365438
0.069379160527154
0.069094427613966
0.068765159026615
0.068385431615402
0.067949128221023
0.067448973840655
0.066877606518012
0.066226495355134
0.065486405003109
0.064648638158084
0.06369965518366
0.062634485608732
0.061427976413986
0.060087276608356
0.058550720033393
0.056822267914765
0.072382336232782
0.072377901276462
0.072368600760496
0.072353519291925
0.072331808911124
0.072302575726559
0.072264609165077
0.072216329652076
0.072155794104026
0.072080750440944
0.071988627546631
0.071876436686604
0.071740827293791
0.071577922531582
0.071383491424321
0.071152579459476
0.070879907764455
0.070559180704279
0.070183887507925
0.069746180679929
0.069238040685763
0.068650206511434
0.067972278277623
0.067195056691688
0.066302422281896
0.065290262022341
0.064125089001013
0.062821648528251
0.061294851712015
0.059586627598897
0.07391511376687
0.073913882068882
0.073911477464165
0.0739073452681
0.07390071989056
0.07389064494164
0.073875770356342
0.07385439960421
0.073824565779402
0.073784104728285
0.073730532169927
0.073660852416595
0.073571659602877
0.073458920299925
0.073318241600326
0.07314439437241
0.072931891028345
0.072674038268971
0.072364097626799
0.071993560885039
0.071554165179367
0.071035407504012
0.070426723209983
0.069716672591057
0.06888996540803
0.067938354134714
0.066829456360627
0.06556797011223
0.064050921546641
0.062336740546754
0.075364932710835
0.075366580043748
0.075370198068032
0.075376298169024
0.075384198286459
0.075392978830023
0.075401492307358
0.075407657120278
0.075409264355945
0.075404038117845
0.075389553421443
0.075362969055852
0.075321122312272
0.075260149709578
0.075175698510364
0.0750623005899
0.074914138510956
0.074723903227599
0.074484506459802
0.074186542968693
0.073821841389621
0.073378236755873
0.072846450125881
0.072210248774647
0.071459653700102
0.070573300185987
0.069541654069244
0.068331284955269
0.066899845333693
0.065070674282644
0.025198905304202
0.024657769965448
0.024105487196991
0.023542995076202
0.02297108180291
0.022390377983016
0.021801424246562
0.021204731607468
0.020600816198962
0.019990217920638
0.019373508464675
0.018751287915978
0.018124173750084
0.017492789930319
0.016857762733764
0.016219720247541
0.015579293066891
0.014937113830626
0.014293819984855
0.013650053823945
0.013006468887275
0.012363736527385
0.011722583607771
0.011083840816603
0.010448552789562
0.0098165199987321
0.0091882113118045
0.0085644275084032
0.007945985422816
0.0073336033658665
0.0067279201318314
0.0061295475945486
0.0055390952272016
0.0049571677733334
0.0043843570754634
0.0038212428984053
0.0032683853536794
0.002726326983781
0.0021955705906977
0.0016765965110411
0.0011698227892183
0.00067566466071015
0.0001944396882861
-0.0002734789201725
-0.00072789998714296
-0.0011684406442583
-0.0015951037800403
-0.0020074134336151
-0.0024057835412319
-0.0027896218904206
0.025392612751724
0.024845079224457
0.02428520915969
0.023714867481273
0.023135270042781
0.022547050708923
0.021950552846614
0.021346071595357
0.020733971989324
0.020114721817914
0.019488877806815
0.018857047355974
0.018219852441854
0.017577915044829
0.016931859932901
0.016282321863252
0.015629948785263
0.014975405858608
0.014319376093685
0.013662562799372
0.013005676462611
0.012349418718216
0.011694405637737
0.011041048118609
0.010389222440197
0.0097410535792608
0.0090974882561157
0.0084589946768205
0.0078260387897188
0.0071992188332119
0.0065792171099634
0.0059667254379893
0.0053624108304269
0.0047669227675566
0.0041808926495837
0.0036049408702214
0.0030396529931059
0.00248560439079
0.0019433129007107
0.001413309352185
0.00089602096330348
0.00039194911577878
-9.8610432914731e-05
-0.0005751370602064
-0.0010375457374743
-0.0014851655010573
-0.0019182850479644
-0.0023357205620137
-0.0027383491040738
-0.0031233158225703
0.025756098542316
0.025190098837416
0.02460876519881
0.024016260034864
0.023415008574442
0.022805824686106
0.022188735834807
0.021563673123551
0.020930782900835
0.020290475516549
0.019643350227544
0.018990081899935
0.018331337131973
0.017667752429935
0.016999953204434
0.016328573349042
0.015654262257333
0.014977683944847
0.01429951606145
0.013620438769556
0.01294113156969
0.012262258459765
0.011584572725445
0.010909009846067
0.010237432040954
0.0095690286941643
0.0089045936951985
0.0082450939440626
0.0075913124065727
0.0069439500375459
0.0063036917411699
0.0056712255733364
0.0050472330798487
0.0044323898558642
0.0038273437425612
0.0032327350875582
0.0026491545148512
0.0020772068554129
0.0015174038957283
0.00097032809019025
0.00043636666091627
-8.3881115521664e-05
-0.00059023974304907
-0.0010819823402613
-0.0015593156664957
-0.0020210920602248
-0.0024682324793469
-0.0028983394576738
-0.0033134475604221
-0.0037069344297665
0.026265417380273
0.025669524729366
0.02505418219077
0.024427235687378
0.023792906078401
0.023152176397654
0.022504528677459
0.021849331318282
0.021186416395775
0.020516121550054
0.01983910846183
0.0191561378025
0.018467920016196
0.017775088141372
0.017078243254381
0.016377996789975
0.015674985594466
0.01496987465028
0.014263358102326
0.013556158319656
0.012849016169628
0.012142700370483
0.011437938589628
0.010735393630404
0.010035079899769
0.0093387037067666
0.0086468488242609
0.0079600887234273
0.0072791390473106
0.0066047233637752
0.0059375386179436
0.0052782708218748
0.0046275881384773
0.0039861553274467
0.0033546037300702
0.0027335772827956
0.0021236559965381
0.0015254757886636
0.00093953009953285
0.0003664757335255
-0.00019335753456103
-0.00073921593324242
-0.001271091729394
-0.0017879326700521
-0.0022903748690454
-0.0027765261799691
-0.0032482855034128
-0.0037012984588006
-0.0041392841449861
-0.004549163734712
0.026905482691453
0.026269906252228
0.025609627877865
0.024937551564935
0.024260226937436
0.023578739876354
0.022891772189093
0.022197934841274
0.021496665546953
0.020788224989416
0.020073360395653
0.019352937145857
0.018627710233477
0.017898293597774
0.017165242219317
0.016429124191683
0.015690544091762
0.014950143405991
0.014208597516579
0.013466604775885
0.012724867979538
0.011984079877217
0.011244918930901
0.010508056061337
0.0097741920870034
0.0090441329485004
0.0083186040312039
0.0075982849401853
0.0068838611596166
0.0061760253732124
0.0054754543070671
0.0047828136930251
0.0040987448716814
0.0034238962363148
0.0027588785675484
0.0021043413333167
0.0014608483591484
0.00082907665678967
0.00020949224963533
-0.00039714683627602
-0.00099059381591911
-0.0015698814225746
-0.0021352391689795
-0.0026851565863108
-0.003220864193712
-0.0037394079787348
-0.004244009354576
-0.0047275680383455
-0.0051961177668713
-0.005627843783011
0.02766558711715
0.026981316166832
0.026265835899523
0.025538581954321
0.024808963214774
0.02407806556724
0.023343500385229
0.022602940984809
0.021855376718701
0.021101008398619
0.020340703088116
0.019575453548223
0.018806062536924
0.018033113354634
0.017257098282646
0.01647852719349
0.015697960022752
0.014916002852636
0.014133300819803
0.013350522960386
0.012568340357098
0.011787414571318
0.011008404250431
0.010231979485335
0.0094588199166881
0.0086896133039381
0.0079250426776041
0.0071657721647868
0.0064124527542854
0.0056657304821674
0.0049262323074852
0.0041945791990222
0.0034713651601532
0.0027572029299144
0.0020526578906163
0.0013583665607589
0.00067484977949981
2.8173824502043e-06
-0.00065732398488336
-0.001304702773582
-0.0019392061033276
-0.0025596006169609
-0.0031664560756649
-0.0037576627825983
-0.0043352760124593
-0.0048949355109617
-0.0054417025831587
-0.0059648472183296
-0.0064736830855332
-0.0069348507445477
0.028537660116344
0.02779607124738
0.027015431805108
0.026223333943101
0.025432567264683
0.024644053508123
0.023854028514886
0.023059051750419
0.022257630898129
0.02144993920403
0.020637002981081
0.019819965959133
0.018999681236576
0.018176688889007
0.017351402146846
0.016524259735872
0.015695767880878
0.014866489846522
0.014037032698486
0.013208027128364
0.012380101587739
0.011553868316359
0.010729931607602
0.0099089027407818
0.0090913994432143
0.0082780448665986
0.0074694557807111
0.0066662371432667
0.0058689734142379
0.005078236587206
0.0042945781707995
0.0035185490850592
0.0027506667628668
0.0019914796735814
0.0012414762920271
0.000501256720397
-0.00022873434189622
-0.00094776398191301
-0.0016555255131602
-0.0023510177075464
-0.0030343291489471
-0.0037038908719752
-0.0043607521275302
-0.0050020162215496
-0.0056308745791182
-0.0062410866805122
-0.0068402245834504
-0.0074127249258302
-0.0079723681866778
-0.0084707393203428
0.029516379235706
0.02870907255358
0.027853426769574
0.026987017589452
0.026126534749244
0.025272492687567
0.02441939926551
0.023562529249626
0.022699902091743
0.0218317153308
0.020959197509956
0.020083660681176
0.019206005880148
0.018326717105984
0.017446113525422
0.016564551564489
0.015682476172387
0.014800400324904
0.013918883507222
0.013038505375607
0.012159834232656
0.011283411514122
0.010409764230868
0.0095394234234966
0.008672927647638
0.0078108180532985
0.0069536227074421
0.0061018521342815
0.0052559945641963
0.0044165235283792
0.0035838844126436
0.0027585205075815
0.0019408342767172
0.0011312733573017
0.00033020819957018
-0.00046183082487107
-0.0012445218312812
-0.0020171305244523
-0.0027795116650532
-0.0035305262598881
-0.0042705632118864
-0.0049976422795243
-0.0057134835371086
-0.0064141733707684
-0.0071044417836307
-0.0077755757173191
-0.0084385106319429
-0.0090713291057302
-0.009693823092453
-0.010238127205918
0.03059881628564
0.02971744407652
0.028776844359498
0.027826662573555
0.026888010991852
0.025960660095781
0.025036977820164
0.024110784435128
0.023179634922928
0.022243827347182
0.021304843332793
0.020364178967714
0.019422776807941
0.018481050958844
0.017539215157517
0.016597535915842
0.015656391020791
0.014716237131856
0.013777577481559
0.012840927967559
0.011906780493619
0.010975587338023
0.010047779234214
0.0091237875299639
0.0082040480472234
0.007288990744651
0.006379024271119
0.0054745328941207
0.004575874731022
0.0036833863886175
0.0027973675764303
0.0019181099643838
0.0010458529192834
0.00018089353473914
-0.00067656854816826
-0.0015261203986968
-0.0023676269183362
-0.0032003886352548
-0.0040245073675288
-0.004838705389932
-0.005643809438905
-0.0064373395152138
-0.0072219484182326
-0.0079924219587313
-0.0087555715391458
-0.0094994862583278
-0.010239597346377
-0.010945835691875
-0.011646080404809
-0.012247772383052
0.031784083339277
0.030820210290447
0.029784430038641
0.028740861178129
0.027715564104456
0.026707114627447
0.02570526358974
0.024702218612536
0.023695133404727
0.022684509934441
0.021672138137747
0.020659704168667
0.019648178347138
0.018637891899056
0.017628946342665
0.016621516132255
0.015615910001742
0.014612523988498
0.013611798091403
0.012614173491171
0.011620050363425
0.010629773364405
0.0096436561174753
0.0086620065640553
0.0076851303696752
0.006713316329227
0.0057468229939884
0.0047858709451539
0.0038306434459051
0.0028812888954337
0.0019379120401975
0.0010005997743406
6.9373921353763e-05
-0.0008556834754466
-0.0017746128209612
-0.0026871861947294
-0.0035935379011738
-0.0044930597751971
-0.0053862162852881
-0.0062716050528201
-0.0071506820302465
-0.0080203696056519
-0.0088846210925032
-0.0097365589756494
-0.010585828907792
-0.011416356990553
-0.012249602762937
-0.013044903595148
-0.013841003068753
-0.014513990204821
0.03307302533458
0.032018027225455
0.03087642801597
0.029729598354197
0.028609070712681
0.027511638942993
0.026423880462308
0.025336242647233
0.02424558999024
0.023152766553039
0.022059933186844
0.020968965818033
0.019880840665967
0.018795790816363
0.017713803953422
0.01663496672678
0.015559522126027
0.014487805290134
0.013420187113369
0.01235702274394
0.011298605678332
0.010245155530136
0.0091968488807844
0.0081538459231878
0.007116293305116
0.0060843038022583
0.0050579460010314
0.0040372324331957
0.00302212694184
0.0020125333863656
0.0010082997268681
9.2339668806524e-06
-0.00098493022611672
-0.001974409951067
-0.0029595701795905
-0.003940464647866
-0.0049176048203963
-0.0058905620382346
-0.0068603149566356
-0.007825376251216
-0.008788087593135
-0.009744668797173
-0.010700865434452
-0.011647680950981
-0.01259859001033
-0.013532103493075
-0.014477688420529
-0.015380977931112
-0.016295007255541
-0.017055532170858
0.034467922953381
0.033312933744199
0.032054380308017
0.030794089990526
0.029569577216687
0.028375107444636
0.027193450391456
0.026013172303331
0.024831016296877
0.023648338062157
0.022467733075095
0.021291255702985
0.020119862668156
0.018953677632837
0.017792576973229
0.016636570285505
0.015485845986033
0.014340682709466
0.013201377971086
0.012068190526839
0.010941294049424
0.0098207678675603
0.0087066332888902
0.0075988785396446
0.0064974604356211
0.0054022786795424
0.0043131692603268
0.0032298818654446
0.0021521028391306
0.0010794242896922
1.136764415166e-05
-0.0010526305777915
-0.0021132146343733
-0.0031710143526056
-0.0042268251431954
-0.005281117060422
-0.006334914157069
-0.0073881013102003
-0.008442364017574
-0.0094962059110602
-0.010553187507026
-0.011608710764029
-0.01267097092356
-0.013728261538479
-0.014799222846892
-0.015855303145324
-0.016936587750047
-0.017970916347594
-0.019029994733078
-0.019897887681794
0.03597215100311
0.034708046805697
0.033320875199018
0.031936591511407
0.030599162277363
0.029299392990269
0.028015532353209
0.026734184309407
0.02545220882495
0.024171677921941
0.022895681512039
0.021626428146435
0.020364824287492
0.019110877507595
0.017864366211163
0.016625242756552
0.01539365908758
0.014169847720946
0.012954031607991
0.011746364310412
0.010546889642575
0.0093555355242252
0.0081721522106539
0.0069965329185741
0.0058284120729098
0.0046674340828376
0.0035131550459705
0.002365004814686
0.0012223264528694
8.4316228405483e-05
-0.0010499183130924
-0.0021814241493653
-0.0033113339874516
-0.0044408399842009
-0.0055713045164278
-0.0067037987408129
-0.0078400319283147
-0.0089804047860985
-0.010127556602862
-0.011280123961932
-0.012443323890501
-0.013611642239881
-0.014796631156135
-0.015983162770039
-0.017196972013959
-0.018400388309071
-0.019647987016958
-0.020844839600802
-0.022088051685796
-0.023096419026525
0.037589810291596
0.036207240880994
0.034679286075529
0.03316019107363
0.03170076861445
0.030287223289347
0.028892502641665
0.027501229060148
0.026110692764161
0.02472391807623
0.023344545187493
0.021974897814265
0.020615796546079
0.01926713393789
0.017928616045943
0.0166001713612
0.015281942642013
0.013974129831247
0.012676883770613
0.011390249900713
0.010114137223981
0.0088483150213006
0.0075924490294336
0.006346118022305
0.00510880364498
0.0038798523147303
0.0026584875011284
0.0014437548731439
0.00023457687022428
-0.00097034141038195
-0.0021724117012593
-0.0033732947468343
-0.0045747525372664
-0.0057787242762844
-0.006987320387116
-0.0082024590241601
-0.0094267667184887
-0.010661450323905
-0.011910430232825
-0.013172721080956
-0.014455767301809
-0.01575308678257
-0.017080782228409
-0.018419411051203
-0.019804373244753
-0.021186082371871
-0.022638802040103
-0.024037991821666
-0.025514876666009
-0.026704725668092
0.039325304736249
0.037814773696711
0.036133471115737
0.034468576226086
0.032878010644376
0.031342014819251
0.029827417363474
0.028316927294039
0.026808656793538
0.025306837345227
0.023815700993562
0.022337637853372
0.020873349245681
0.019422625310699
0.017985143629209
0.016560855538708
0.015149927706739
0.013752545499607
0.01236879528485
0.01099861923788
0.0096417957783236
0.0082979382966252
0.0069665189197755
0.0056468767840256
0.0043382075723635
0.0030395283102215
0.0017496797937881
0.00046725244851428
-0.00080934426909442
-0.0020819976142132
-0.0033527693524367
-0.0046240811258332
-0.0058985071972466
-0.0071789422038737
-0.0084684952912329
-0.0097702206475058
-0.011087990246945
-0.012424190819226
-0.013784479125547
-0.015168616325184
-0.016587041373637
-0.018032338811219
-0.019526747432634
-0.02104541590004
-0.02263685712447
-0.024235842516848
-0.025943201045523
-0.027595365428749
-0.029369012738004
-0.030792646190315
0.041182875287508
0.039534863139189
0.037687436143647
0.035865784766927
0.034134985807028
0.03246771257327
0.030823864487621
0.029184440192769
0.027548853652654
0.025922798789585
0.024311107527713
0.022716170033187
0.021138548309748
0.019577971531271
0.018034155405195
0.016507134050748
0.014997136127914
0.013504351418181
0.012028814556514
0.010570376991582
0.0091286984755908
0.0077032460653015
0.0062933247669934
0.004898025725593
0.0035161693013506
0.0021464192109321
0.00078720551981707
-0.00056340133932398
-0.0019076130203508
-0.0032480178661993
-0.0045874896586978
-0.0059293642390266
-0.0072772772996046
-0.0086352952572991
-0.010007881235743
-0.011399528016893
-0.012815843030122
-0.014260792309042
-0.015742430609483
-0.017261714267127
-0.018833111055208
-0.020448418503333
-0.022138067595714
-0.023870568580884
-0.025712096579114
-0.027577022695642
-0.029602001018902
-0.031572143329473
-0.033723868932901
-0.035445180166772
0.043166160046419
0.041371261126572
0.039344959821307
0.037355892107025
0.035476019097057
0.033668587041252
0.031885804798503
0.030107335583544
0.028334477136799
0.026574639447255
0.024833219264069
0.023112518987747
0.021412953615914
0.019734261371833
0.018076290824549
0.016439234178681
0.014823427183183
0.013229092251717
0.011656234565439
0.010104640733544
0.0085738685844019
0.0070632414983954
0.0055719043670113
0.0040987444728646
0.0026421855838918
0.0012004797051304
-0.00022842907934163
-0.0016470495543354
-0.0030583168004311
-0.0044656315065616
-0.0058728775648724
-0.0072844688412001
-0.008705421380994
-0.01014119906522
-0.011598139125915
-0.013082466603677
-0.014602283721871
-0.01616349740008
-0.017777596931214