/*--------------------------------*- C++ -*----------------------------------*\
| =========                 |                                                 |
| \\      /  F ield         | OpenFOAM: The Open Source CFD Toolbox           |
|  \\    /   O peration     | Version:  2112                                  |
|   \\  /    A nd           | Website:  www.openfoam.com                      |
|    \\/     M anipulation  |                                                 |
\*---------------------------------------------------------------------------*/
FoamFile
{
    version     2.0;
    format      ascii;
    arch        "LSB;label=32;scalar=64";
    class       volScalarField;
    location    "4.1";
    object      p;
}
// * * * * * * * * * * * * * * * * * * * * * * * * * * * * * * * * * * * * * //

dimensions      [0 2 -2 0 0 0 0];

internalField   nonuniform List<scalar> 
22000
(
0.090079972142513
0.090043329967305
0.089966937854365
0.089849026174956
0.089688912955363
0.089486711784169
0.089242803245433
0.088957516301759
0.088631061967205
0.088263596325177
0.087855286589705
0.087406341197576
0.086917008188515
0.086387573022336
0.085818344780808
0.085209667474435
0.08456191823841
0.083875543012417
0.08315102616618
0.08238892154641
0.081589753921261
0.080754106530578
0.079882533350851
0.078975889584819
0.07803497170418
0.077060918681367
0.076054245038922
0.075016352473983
0.07394747887033
0.072850122621457
0.090770735944225
0.09073232264268
0.090653903273259
0.090533933722218
0.090371680465008
0.090167127858475
0.089920551820238
0.08963222200305
0.089302318266081
0.088930973032799
0.088518324270337
0.088064542663806
0.087569829621062
0.0870344219129
0.086458576572334
0.085842593085897
0.085186806744585
0.084491641159355
0.083757555033792
0.082985101870047
0.082174756957215
0.081327077905557
0.080442516496644
0.079521986918534
0.07856617037953
0.077576349091305
0.076552673344861
0.075496858077136
0.07440832880149
0.073290131619151
0.092034453868253
0.09199516735185
0.091915128432314
0.09179291663225
0.091627844598774
0.091419866154412
0.0911691976587
0.090876051171306
0.090540555279815
0.090162792853546
0.089742848061497
0.089280833408464
0.088776884392347
0.088231168816207
0.087643863627787
0.087015192640751
0.086345408874178
0.085634879126689
0.0848839884631
0.084093256267265
0.083263040279171
0.082393854112555
0.081485973731684
0.080540424755184
0.079557659938222
0.078539263161779
0.077484761625992
0.076396586426777
0.07527266106964
0.0741172872303
0.0937830947692
0.093743047084403
0.093661459748461
0.093536900911196
0.093368672007104
0.093156702372518
0.09290116641804
0.092602220120092
0.09225992483183
0.091874288876325
0.091445313498556
0.090973022466376
0.090457451902007
0.089898666803381
0.089296728367512
0.088651753765431
0.087963875842916
0.087233366871649
0.086460479281772
0.085645656270104
0.084789077790273
0.083891210061017
0.082952077277987
0.081972832419982
0.080953541935341
0.079896202833824
0.078799432391277
0.077666677195379
0.076493617200839
0.075286317390219
0.09593826939488
0.095897495033592
0.095814418898341
0.095687586678411
0.095516269360744
0.095300352950218
0.095039952932248
0.09473515092669
0.094385918618587
0.093992162772839
0.093553769703238
0.0930706394896
0.092542671132032
0.091969788734073
0.091351895042506
0.090688956916216
0.089980932329323
0.089227948186458
0.088430062978469
0.087587608972069
0.086700528312437
0.085769224075831
0.084793371101496
0.083774254659648
0.082711390192417
0.081607292353302
0.080459377917076
0.079272408408468
0.078039133983491
0.076767950461391
0.098429970755341
0.098388618248295
0.098304352912285
0.098175702672532
0.098001900008318
0.097782769305938
0.097518344345644
0.097208607526499
0.096853413231052
0.096452536039211
0.096005713126576
0.095512684255308
0.094973171634618
0.094386917523542
0.093753619492552
0.093073046162704
0.092344923450449
0.091569178884703
0.090745605002717
0.089874367040006
0.088955082536113
0.087988055589792
0.086972500146779
0.08590983190775
0.084798836976274
0.083642641238118
0.082437162060504
0.081188766096417
0.079886589664724
0.078541874697294
0.10119487476413
0.10115322265461
0.10106832945736
0.10093871155085
0.10076355669049
0.10054261101768
0.10027580434584
0.09996299503007
0.099603892926191
0.099198110465971
0.098745200948877
0.09824470466643
0.097696121231484
0.097098961695128
0.096452662364684
0.095756738053496
0.09501061856196
0.094213972778981
0.093366252022132
0.092467393779211
0.091516601487731
0.090514037835457
0.089458340818057
0.088351043087174
0.087190004639485
0.085979033003306
0.084712218956066
0.083397786420864
0.08202054426486
0.080595032502425
0.1041749667182
0.10413341505533
0.10404869951768
0.10391933431582
0.10374445841324
0.10352372449267
0.10325693718775
0.10294380633759
0.10258386932933
0.10217654485956
0.10172116609414
0.101217034291
0.10066338248748
0.10005944495829
0.099404345147969
0.098697289546438
0.097937345186318
0.097123852725397
0.096255836129283
0.095332926266793
0.094353812021981
0.093318449654301
0.092224765750309
0.09107437532433
0.08986398300836
0.088598147882402
0.087268764623455
0.085886159495809
0.084430110377396
0.082918825132839
0.10731672480487
0.10727578147902
0.1071922686935
0.10706470694655
0.10689218370286
0.10667424469017
0.10641054996868
0.10610063888582
0.10574385210345
0.10533938755353
0.10488632691027
0.10438369639454
0.10383041969369
0.10322540526679
0.10256740704761
0.10185526007412
0.10108759981146
0.10026336220279
0.099381065815215
0.098439945166508
0.097438083651865
0.096375151044001
0.09524822286065
0.094058975856167
0.092802673422472
0.091484734478306
0.090094404744257
0.088644221364918
0.0871083133531
0.085508680841632
0.11057073413749
0.11053098626966
0.11044988396527
0.11032595205942
0.11015822151954
0.10994612238213
0.10968915562377
0.10938667256254
0.10903779714708
0.10864148331227
0.10819653261462
0.10770166310501
0.10715545007611
0.10655643270713
0.10590294644956
0.10519339850117
0.10442593044023
0.10359899445422
0.10271052765758
0.10175926225685
0.10074258869632
0.099659776869493
0.098506926468042
0.097285698996761
0.09598970820551
0.094625230975949
0.093178748660737
0.091664703477893
0.090051751613377
0.088363419608453
0.11389160351518
0.11385370394703
0.11377634491818
0.11365806364224
0.11349783030188
0.11329495371779
0.11304876819843
0.11275842549168
0.11242281790289
0.11204063816609
0.11161038782057
0.11113045362595
0.11059903281042
0.11001425973078
0.10937400731481
0.10867620200244
0.10791843015064
0.10709858390316
0.10621394576624
0.10526263129062
0.10424127369724
0.10314855498698
0.10197960365608
0.10073568533067
0.099408971950289
0.098005741620641
0.096510711009899
0.094938105090752
0.093256095921426
0.091486564920169
0.11723798006086
0.11720261714792
0.11713040346674
0.11701990648969
0.11687003661274
0.11667997663695
0.11644889085397
0.11617572849165
0.11585914530312
0.11549756550221
0.11508917909228
0.11463202578795
0.11412390381375
0.11356251634747
0.11294523975396
0.11226947860448
0.11153221446658
0.1107307175541
0.10986154797972
0.10892210691267
0.10790819714743
0.10681775008732
0.1056448944042
0.10439019921721
0.10304444894868
0.10161360984681
0.10008032152096
0.098459432736909
0.096715320001147
0.094871562450392
0.12057266045663
0.12054053016795
0.1204748799657
0.12037433154314
0.12023774386098
0.12006417335287
0.11985261493482
0.11960181912935
0.11931020906452
0.11897594252744
0.1185968974318
0.11817076362395
0.11769493221445
0.11716666300453
0.11658281792339
0.11594025447834
0.11523531265157
0.11446459381902
0.11362387462634
0.11270976946897
0.11171716079964
0.110643129623
0.10948067995855
0.10822955367635
0.1068789588119
0.10543443592998
0.10387620464086
0.10221970485756
0.1004248808934
0.098516634955331
0.12386273103034
0.1238345121467
0.12377681032885
0.12368832833467
0.12356788776679
0.123414424503
0.12322677015552
0.12300348685446
0.12274277824577
0.12244254940045
0.12210037867641
0.12171361726383
0.12127925703624
0.120794118299
0.12025454409505
0.11965683503383
0.1189966701196
0.11826995452243
0.11747163897541
0.11659749868375
0.1156414204946
0.11459955129187
0.1134636569053
0.11223252287989
0.11089360602717
0.10945186045749
0.10788476514364
0.10620828186383
0.10437711761794
0.10241789335529
0.1270796696838
0.12705600121568
0.12700755385434
0.12693313934848
0.12683155978785
0.12670164238091
0.12654206853502
0.12635122990694
0.12612713289417
0.12586745423581
0.12556949728968
0.12523029905658
0.12484647463886
0.12441442544077
0.12392999140499
0.12338892683341
0.12278625016334
0.12211716668966
0.1213757811403
0.12055700224858
0.11965366697282
0.11866093071893
0.11756922276041
0.1163762712892
0.11506760278696
0.11364745772182
0.11209015031856
0.11041212643473
0.10856170191255
0.10656571960434
0.13019937309029
0.13018083461309
0.13014282911337
0.13008430569588
0.13000406721768
0.12990084891765
0.12977320155785
0.12961937152268
0.12943719862061
0.12922416539603
0.12897733630976
0.12869347164057
0.12836884729941
0.12799948378231
0.12758075280298
0.12710789554421
0.12657529420242
0.12597747405803
0.12530769796116
0.1245600103151
0.12372616835491
0.12280030997706
0.12177145202567
0.12063620430241
0.11937803438595
0.11800033283165
0.11647413207996
0.11481576892709
0.11296732245147
0.11095335983117
0.13320209275215
0.1331891891801
0.13316266214414
0.13312162635778
0.13306490795561
0.13299117073337
0.1328988595468
0.13278610667849
0.13265062300438
0.13248973946508
0.13230032849873
0.13207892367363
0.131821514274
0.13152379367575
0.13118071837385
0.13078706897162
0.13033663779223
0.12982331750348
0.12923956015274
0.12857857688334
0.1278310502264
0.12699009630301
0.12604329879989
0.12498606308132
0.12379979485884
0.12248678155728
0.12101480927853
0.11939955797
0.11757640938547
0.11556623374329
0.1360722799814
0.1360654267822
0.1360512408792
0.13602902801925
0.13599765815356
0.13595574751579
0.13590166515713
0.13583346604425
0.13574877563512
0.13564482218592
0.13551834117389
0.13536569885853
0.13518266271888
0.13496466595397
0.13470632027954
0.13440201650361
0.13404502711307
0.13362868370136
0.13314468873221
0.13258548293214
0.13194071201546
0.13120250025783
0.13035701800322
0.12939840697011
0.12830603191105
0.12708085065379
0.12568745230657
0.12414047634315
0.12236821831643
0.12038698235502
0.13879834362674
0.13879786913697
0.13879669879997
0.13879435700758
0.13878978201152
0.13878156656049
0.13876803606007
0.13874720861804
0.13871667235394
0.13867360641473
0.13861467129739
0.13853613272488
0.13843361205865
0.1383023591313
0.13813672719482
0.13793080241671
0.13767743033892
0.13736947249877
0.13699797075456
0.13655468505421
0.13602829607768
0.13541000783881
0.13468463380348
0.13384507141356
0.13286867758299
0.13175492466464
0.13046510690023
0.12901252275262
0.12731801390958
0.12539287341526
0.14137233233484
0.14137847003805
0.14139079951376
0.14140908979201
0.14143236497647
0.14145922137691
0.14148797756262
0.14151665572658
0.14154285392488
0.14156375490343
0.14157601003838
0.14157585625854
0.14155885598325
0.1415201607195
0.14145396896834
0.14135415631274
0.14121326033162
0.14102377462914
0.14077620541372
0.14046173410991
0.14006818462568
0.13958592890027
0.13899850913197
0.1382976608371
0.13745885387795
0.13648011983583
0.1353194193885
0.13398822947961
0.13239915485057
0.13055769453998
0.14378954524031
0.14380245001245
0.14382859888191
0.14386800829506
0.14391980667614
0.1439826233332
0.14405481100367
0.14413444330583
0.14421917994623
0.1443062578007
0.14439238164704
0.1444738235393
0.14454617487211
0.14460457136717
0.14464317845891
0.14465575736331
0.14463469263394
0.14457221088813
0.14445846911641
0.14428416782733
0.14403647209874
0.143704985184
0.1432721316687
0.14272847453802
0.14204772535211
0.14122662933852
0.14022018803429
0.13903849428183
0.13758448051405
0.13585559727761
0.14604812911793
0.14606786998049
0.14610799044777
0.146168759193
0.1462494269242
0.14634867313722
0.14646490345435
0.14659627729078
0.14674057682296
0.14689516571036
0.14705688516798
0.14722210887502
0.14738653994642
0.14754535887475
0.14769281802472
0.14782263690308
0.14792723202276
0.1479986280443
0.14802689899119
0.14800229318637
0.14791169495563
0.14774388908736
0.1474806839465
0.14711117193029
0.14660771940577
0.14596503110256
0.1451355560289
0.14412930081315
0.14284017547594
0.14125862936367
0.14814871354155
0.1481751761233
0.14822915250023
0.14831119616334
0.14842073231973
0.14855651016819
0.14871698408846
0.14890038277983
0.14910461771742
0.14932722699693
0.14956527881385
0.14981534630694
0.15007336764677
0.15033465719353
0.15059369020498
0.15084419521736
0.1510788075445
0.15128934438135
0.15146611652333
0.15159878678569
0.15167454555819
0.15168091367377
0.15160027377437
0.15141911220076
0.15111074417841
0.15066455081471
0.15003276220205
0.14921890789956
0.14811319926881
0.14670984846702
0.15009434864802
0.15012706313543
0.15019421015008
0.15029682310865
0.15043457667689
0.15060630729299
0.15081054534311
0.15104560304398
0.15130953173953
0.1516000383156
0.15191438799141
0.15224932676134
0.1526010634548
0.15296514628034
0.15333646177874
0.15370891060238
0.15407559515627
0.15442819194677
0.15475757756499
0.15505265358884
0.15530158476739
0.15548983173439
0.15560207756904
0.15561967062548
0.15552201714374
0.15528604174565
0.1548764257094
0.15426446899714
0.15335125409726
0.15208767380523
0.15189100545842
0.15192940079669
0.15200831713027
0.15212994452453
0.15229405607861
0.15249964228203
0.15274538988374
0.15302973006427
0.15335098457804
0.15370721455685
0.15409601229046
0.15451429567947
0.15495837439226
0.15542384387245
0.15590587277471
0.1563986432781
0.15689596562546
0.15738983640866
0.15787213838892
0.15833148982771
0.15875749632333
0.15913372920169
0.15944813063103
0.1596757830497
0.15980600795445
0.15979694042365
0.15964533622223
0.15926580142825
0.15862366336466
0.15740327243339
0.07179339403656
0.070782353882872
0.06974908346785
0.06869551604028
0.067623445257558
0.066534218839691
0.065428897946888
0.064308482276164
0.06317403680557
0.062026709247758
0.060867687590043
0.059698156735017
0.058519285428772
0.057332238849319
0.056138197436598
0.054938369021861
0.053733992446744
0.052526335672702
0.051316692258907
0.050106377792204
0.048896725475546
0.047689085683483
0.046484830533291
0.045285357051417
0.044092074781598
0.042906133492801
0.041728423350377
0.040560103706779
0.039402448081544
0.038256675294644
0.03712390523463
0.036005182515202
0.034901483415472
0.033813709054967
0.032742700954479
0.031689261314617
0.030654161033099
0.029638122484003
0.028641817143255
0.027665836718382
0.026710696220858
0.025776776300608
0.024864384720437
0.023973684263369
0.023104883886894
0.022258020558836
0.021433359032705
0.02063077852451
0.019850695694329
0.01909249238391
0.072217676293041
0.07119484506376
0.070146693191388
0.069077839653499
0.067990924485938
0.066886910375748
0.065766208288392
0.064629408211809
0.063477448243172
0.062311492234344
0.061132773440481
0.059942515312706
0.058741926699196
0.057532227100613
0.056314666626057
0.055090532149988
0.05386114420075
0.052627852794402
0.051392034379549
0.050155087787696
0.048918430177133
0.047683482076667
0.046451640910219
0.04522424389193
0.04400253791496
0.042787993371993
0.041582331332847
0.040386912904043
0.039202932879141
0.038031592841079
0.036874097257241
0.035731578650934
0.034605090990724
0.033495643707001
0.032404206731964
0.031331681672049
0.030278894448047
0.029246593639363
0.028235467880418
0.027246121979186
0.026279103249362
0.025334845794122
0.024413755946126
0.023516086471863
0.022642140985348
0.021791986162615
0.020965907615999
0.020163783077998
0.019386070048337
0.018632671375316
0.073011105740636
0.071953349738857
0.070863718347164
0.0697526391528
0.068624810973786
0.067480754828212
0.066319899620207
0.065142296127985
0.063948837011406
0.062740848923703
0.061519719263549
0.06028675708487
0.059043214278603
0.057790345931292
0.056529446866631
0.055261858168443
0.053988961001391
0.052712167867944
0.051432916817251
0.050152667868382
0.04887289572453
0.047595087929662
0.046320742024257
0.045051374951195
0.043788552680606
0.042533804925637
0.041288544179405
0.040054201214069
0.038832149630022
0.037623656358926
0.036429933305276
0.035252191884909
0.034091614536982
0.032949295601763
0.031826236363844
0.030723362667287
0.029641539171643
0.028581548244987
0.027544096146599
0.02652978895916
0.025539168097466
0.02457266099549
0.023630656334832
0.02271339804837
0.02182115924869
0.020954012313698
0.020112257885084
0.019296022713445
0.018506548719713
0.017746283095095
0.074130116682607
0.073016550809303
0.071861981918648
0.070685870967333
0.069495936513562
0.068291891831432
0.067071609070055
0.065834305459462
0.064580796967863
0.063312635845134
0.062031409058806
0.060738515028371
0.059435228426898
0.058122814984345
0.056802590694871
0.055475928360656
0.054144244530897
0.052808987433133
0.051471632407546
0.050133682457738
0.048796671374305
0.047462163092728
0.046131746718894
0.044807025263625
0.04348959480543
0.042181024675428
0.040882829763817
0.039596482443928
0.038323416878404
0.03706503941692
0.035822722490276
0.03459777124026
0.033391402625985
0.032204745925259
0.031038859320443
0.029894721872287
0.028773236855015
0.027675209270683
0.026601374300157
0.025552358392079
0.024528743071631
0.023530971451415
0.022559489955494
0.021614548409718
0.020696522241629
0.01980549981393
0.018942039954177
0.018106462205237
0.017301020814776
0.016530163854882
0.075548537287369
0.074361179184305
0.07312086102788
0.071859378545519
0.0705884237993
0.069306489852715
0.068009289905184
0.066694920805701
0.065364118606939
0.064018752587558
0.062660673261136
0.061291382774234
0.059912167951157
0.058524292592646
0.057129087863362
0.055727958309586
0.054322360593375
0.05291378717151
0.051503761289344
0.050093839817043
0.048685616790151
0.04728071845976
0.04588079041258
0.044487476328441
0.043102397180742
0.041727157605932
0.04036335835111
0.039012567607851
0.037676322298595
0.036356119068163
0.035053387224879
0.033769469358532
0.032505630845137
0.031263060205503
0.030042872793999
0.028846092975786
0.027673671625496
0.02652645638672
0.025405234111799
0.024310662338995
0.023243370311455
0.022203807314992
0.021192472143791
0.020209582882266
0.019255594147117
0.018330517899634
0.017435160170637
0.016570045189744
0.015739112205965
0.01495076397613
0.077248240387559
0.075970666486091
0.074625041376926
0.073259061804206
0.071889386928717
0.070512833848858
0.069122319684768
0.067714528389796
0.066290126216098
0.064851408952425
0.063400569491238
0.061939237682161
0.060468707530443
0.058990232246143
0.057505154045272
0.056014906965873
0.05452098477985
0.053024917271573
0.051528262966187
0.05003261300067
0.048539594795676
0.047050871079786
0.045568129054862
0.044093068696741
0.04262739950884
0.041172822339232
0.039731031788366
0.038303701075854
0.036892457030105
0.035498851902922
0.034124375609103
0.032770462340764
0.03143847509583
0.030129675859997
0.028845242833866
0.027586261440092
0.026353750043838
0.025148604390861
0.023971663547105
0.02282360622882
0.021705112607112
0.020616622231504
0.019558699079749
0.018531497308248
0.017535605068556
0.016570915466467
0.015638669241704
0.014739493728001
0.013879392854279
0.013070334471983
0.079218324087355
0.077835389039499
0.076365775216829
0.074877036990555
0.073391844635173
0.071904795353103
0.070405307884088
0.068888347701301
0.06735453511504
0.0658067231585
0.064247544431686
0.06267879526164
0.061101786854318
0.059517768415708
0.05792810114579
0.056334253686231
0.054737754476727
0.05314016195312
0.05154305920133
0.049948063808976
0.048356840271874
0.04677110403513
0.045192614923133
0.043623165357099
0.042064569860245
0.040518630438357
0.038987111189894
0.037471752708074
0.035974252357548
0.034496251428683
0.033039336445745
0.031605020747858
0.030194733935221
0.028809801394894
0.027451468436227
0.026120871500488
0.024819078727753
0.023547014585674
0.022305567786675
0.021095427973002
0.019917333665795
0.018771694543869
0.017659161865299
0.016579787120366
0.015534349130244
0.014522533571979
0.013546169365504
0.012605901423515
0.011710611935779
0.010877021244678
0.081452171470688
0.079949600987133
0.078337740821099
0.076708467787427
0.075091646637655
0.073479004535204
0.071855602454712
0.070214325466028
0.068555811641444
0.066883640672027
0.065200975870225
0.063509794949179
0.061811422845229
0.060107111552169
0.058398257983768
0.0566863851375
0.054973075567724
0.053259933705223
0.051548581861272
0.049840677419545
0.048137933236154
0.046442125297103
0.04475508389169
0.043078672802042
0.041414768688578
0.039765241387081
0.038131956917433
0.036516754175012
0.034921436445797
0.033347749098968
0.03179736952364
0.030271893329878
0.028772841838793
0.027301629854179
0.025859588392906
0.024447917647252
0.023067761232578
0.021720094392685
0.02040589046389
0.019125860269635
0.017880840334993
0.016671201606337
0.015497745805188
0.01436037862393
0.013260187015485
0.012196544275399
0.011172124812595
0.010187404042221
0.0092548084530496
0.0083958528477222
0.083947339322385
0.08231186548084
0.080540007730593
0.078752790963267
0.076988636244842
0.075235807871274
0.07347402718422
0.071693611417072
0.069895303136454
0.068083657918535
0.066262481363909
0.064433925892315
0.062599316471298
0.060759918758571
0.058917185229728
0.057072714094866
0.055228163607644
0.053385205221671
0.051545518465507
0.049710812850676
0.047882855194697
0.046063481689351
0.04425459120354
0.042458126680621
0.040676059250627
0.038910366977641
0.037163032102862
0.035436014196772
0.033731237368495
0.032050564676828
0.030395790813141
0.028768623235414
0.027170693507828
0.025603512094764
0.024068506003092
0.022566950056291
0.021100078912665
0.019668919035439
0.018274537892959
0.016917654607774
0.015599221876811
0.014319542069419
0.013079607514706
0.011879106873252
0.010719529056795
0.0095997713994963
0.0085235956885288
0.0074910001987728
0.0065188361693642
0.0056336888115814
0.08670371779043
0.084922104958172
0.082972765783267
0.081010869410475
0.079084378824537
0.077177262433841
0.075262914669071
0.073328671603786
0.071375517495765
0.069409252523673
0.067434446304868
0.065453428698333
0.063467518601555
0.061478015867804
0.059486459636825
0.057494551059731
0.055504047319072
0.05351670636884
0.051534280899554
0.049558546830342
0.047591340007092
0.045634575312376
0.043690244079328
0.041760397045226
0.039847128590203
0.037952543992423
0.036078757237485
0.034227865052532
0.032401929285708
0.030602947076397
0.028832847662949
0.027093466587745
0.025386562036584
0.023713754695232
0.022076586757768
0.020476422373365
0.018914608673715
0.017392232685608
0.015910484223369
0.014470094092828
0.013072174862486
0.011716944254056
0.010405656899547
0.0091377206955066
0.0079151688992773
0.0067362545714991
0.0056061689798448
0.004524069761199
0.003512278414668
0.0026023055250759
0.089724656453248
0.087782152104195
0.085637305374964
0.083484552358355
0.081381695429916
0.079306900205279
0.077226118987497
0.075123529337452
0.07300062473517
0.07086468542526
0.068721135551388
0.066572492524896
0.064420069655124
0.062265220542485
0.060109606921265
0.057955073823858
0.055803514618042
0.053656805278619
0.051516799118101
0.049385363484068
0.047264427590297
0.045156010732831
0.043062223395301
0.04098524826038
0.038927321297362
0.036890695159078
0.034877644580608
0.032890428502736
0.030931275934255
0.029002349695342
0.027105741891622
0.025243441041653
0.023417360895649
0.021629262419762
0.019880836303617
0.018173560907062
0.016508929105572
0.014888104565783
0.013312439318721
0.011782673818393
0.010300135519663
0.0088649195937706
0.0074786368452529
0.0061403068153293
0.0048526949025323
0.0036131555141319
0.0024287317954377
0.001297196160515
0.00024753070787118
-0.00068433080796015
0.093011376301961
0.090896227795413
0.088537708239477
0.086177760439466
0.083884979212108
0.081629601968716
0.079368775328096
0.077083451254037
0.07477595878765
0.072455278727991
0.070127779828409
0.067796188379327
0.065461811118363
0.06312607186465
0.060790797243353
0.058458026434492
0.056129835873189
0.053808262824516
0.051495301919359
0.04919294930232
0.046903261363676
0.044628391055375
0.042370594174546
0.040132212346798
0.037915653245389
0.035723353380901
0.033557786456061
0.031421413115839
0.029316664156729
0.027245904473226
0.025211430784347
0.02321542464611
0.021259991943806
0.019347066707513
0.017478522342195
0.015655977900706
0.013881105714598
0.012155162384611
0.010479704955976
0.0088554804514421
0.0072840975368046
0.0057654838016411
0.0043017261946844
0.0028913234805956
0.0015380133855883
0.00023793120960077
-0.00099950230798082
-0.0021786121741462
-0.0032623703527751
-0.0042113479400668
0.096563764732724
0.09426574963369
0.091676803276035
0.089094249372512
0.08659858673212
0.084150238720363
0.081696208388772
0.079214068928448
0.076707300427386
0.074186852115813
0.071660152810119
0.069130156065793
0.066598161940283
0.064065691806438
0.06153479109279
0.059007753394206
0.056486890922109
0.05397444801852
0.051472605416773
0.048983533406131
0.04650946004615
0.044052716132178
0.041615747409132
0.039201098786015
0.036811394722949
0.034449297611659
0.032117522786178
0.029818774995171
0.027555735092499
0.025331017248892
0.023147164768954
0.021006592168794
0.018911640624473
0.01686445938194
0.014867147511504
0.012921502425155
0.011029420547352
0.00919228073197
0.0074118996615948
0.005689037719194
0.0040256650494767
0.0024214969188294
0.00087923685178908
-0.00060328775806888
-0.002021089622269
-0.0033796358729285
-0.0046665164959521
-0.005889067315067
-0.0070006190574339
-0.0079598031570165
0.10038035094598
0.09789127509063
0.095056064139075
0.092236865080454
0.089526650669767
0.086873736369777
0.084213786287101
0.081521040024612
0.078800538488599
0.076065467360068
0.073324392413058
0.070580490364099
0.067835055673572
0.065089748780601
0.062346906616444
0.05960915166397
0.056879095571789
0.054159246486065
0.051452025601324
0.048759831833232
0.046085120077162
0.043430454379347
0.040798525641209
0.038192137837255
0.035614189309176
0.033067624194531
0.030555454503173
0.028080687750372
0.025646308605063
0.023255229989548
0.020910296299304
0.018614212826759
0.016369612615337
0.014178910399111
0.012044482398164
0.0099683510042379
0.0079526898632145
0.0059990388085431
0.0041095334131868
0.0022849624246877
0.00052774143512004
-0.0011626656671175
-0.0027827939753426
-0.0043356303511747
-0.0058146644156966
-0.0072273280465021
-0.0085576304523529
-0.0098168991579134
-0.010947206279347
-0.011907473995649
0.10446310395695
0.10177458707665
0.098672840701533
0.095604611569171
0.092671043430219
0.089803857530853
0.086926210201182
0.084009582343135
0.081061293414615
0.078097071920103
0.075126648698288
0.072153389872764
0.069178594459529
0.066204130714682
0.063232721883719
0.060267409968696
0.057311181996711
0.054366876883116
0.051437222655851
0.04852491404997
0.045632700118246
0.042763445927861
0.03992015541727
0.037105958805593
0.034324094241452
0.03157785496749
0.028870619102977
0.026205761611627
0.023586636826309
0.021016527508009
0.018498650570586
0.016036069885243
0.013631775249004
0.011288508593972
0.0090089860459328
0.0067955134413636
0.0046506031282224
0.0025760057045536
0.00057423899166697
-0.0013538499917785
-0.0032053200299203
-0.0049809792502805
-0.0066764771136611
-0.0082957238796867
-0.0098305061790034
-0.011290428547854
-0.012655672051564
-0.013941993228605
-0.015079398391622
-0.016028348169364
0.10879889388329
0.10590558757985
0.10252813085296
0.09920012346542
0.096033951950389
0.092943359063286
0.089837063732427
0.086683958141624
0.083494411868008
0.080287034761591
0.077072698381787
0.073854872441919
0.070634865463551
0.067414844902378
0.064198038859403
0.060988013349562
0.057788219986476
0.054601914650718
0.05143221852556
0.048282207890996
0.045155009915149
0.042053872697981
0.038982193590605
0.035943508668072
0.032941474934906
0.029979815123911
0.02706235386214
0.024192919689269
0.02137532089893
0.018613293767475
0.015910505329749
0.013270460539365
0.010696582235028
0.0081920218577248
0.0057599059592591
0.0034028990938046
0.0011239154136754
-0.0010750134668563
-0.0031909271645323
-0.0052228660104255
-0.0071672915005461
-0.0090252811608933
-0.010791474579915
-0.012470809230741
-0.014053193291621
-0.015550576171079
-0.01693946429663
-0.018239932353685
-0.019371510511144
-0.020294876186401
0.11337962478846
0.11027775057006
0.10661395223307
0.10301992069196
0.099615560378301
0.096293617462332
0.092948489560711
0.089547231925466
0.086103812394424
0.082639962687373
0.079167661831682
0.075690395443359
0.072209507366763
0.068727590440704
0.065248513486496
0.061776471049724
0.058315464608069
0.054869254598087
0.051441453901283
0.048035624601131
0.044655376772025
0.04130444501882
0.03798672099445
0.03470624622917
0.031467195108374
0.028273818384197
0.025130484726444
0.022041575906399
0.019011451930411
0.016044407067553
0.013144653837904
0.010316241948786
0.0075631119329538
0.0048889307611444
0.0022973055713103
-0.00020863068272617
-0.0026255141650608
-0.0049509198564158
-0.007181416653517
-0.0093158210045991
-0.011349962076377
-0.013285137642519
-0.015114823680844
-0.01684519875562
-0.018463746830553
-0.01998555968363
-0.021382346900587
-0.022680311353329
-0.023788541557053
-0.024674685166715
0.11819110653131
0.11487915069404
0.11092216032719
0.10705843542668
0.10341248372927
0.099853196547767
0.096260465820802
0.09260060775287
0.088891954367046
0.085159429743925
0.081415935154379
0.077664893200652
0.07390776830694
0.070147744391243
0.06638949675966
0.062637981605184
0.058897862847119
0.055173516442317
0.051469160023233
0.047788955184703
0.044137108309502
0.04051795391398
0.036935993295674
0.033395890639035
0.029902459325499
0.026460587922873
0.023075302222355
0.019751656389408
0.016494681636473
0.013309354341124
0.010200548368524
0.0071729817907809
0.0042312113673585
0.0013795501520351
-0.0013778367384637
-0.0040371964951094
-0.0065946915330401
-0.0090473195294493
-0.011391232601723
-0.01362477912247
-0.015743274405591
-0.017747973182062
-0.019631216802748
-0.021400485679148
-0.023040230974427
-0.024570104441158