/*--------------------------------*- C++ -*----------------------------------*\
| =========                 |                                                 |
| \\      /  F ield         | OpenFOAM: The Open Source CFD Toolbox           |
|  \\    /   O peration     | Version:  2112                                  |
|   \\  /    A nd           | Website:  www.openfoam.com                      |
|    \\/     M anipulation  |                                                 |
\*---------------------------------------------------------------------------*/
FoamFile
{
    version     2.0;
    format      ascii;
    arch        "LSB;label=32;scalar=64";
    class       volScalarField;
    location    "17";
    object      p;
}
// * * * * * * * * * * * * * * * * * * * * * * * * * * * * * * * * * * * * * //

dimensions      [0 2 -2 0 0 0 0];

internalField   nonuniform List<scalar> 
22000
(
0.041908618634626
0.041885971400085
0.041839105464568
0.041766933749859
0.041668935290914
0.041545082619026
0.041395597548733
0.041220720924496
0.041020614782439
0.040795376617473
0.040545084939164
0.040269835873077
0.039969753387901
0.039644992383275
0.039295726505579
0.038922155001451
0.038524488385078
0.038102973405506
0.03765786170481
0.037189462749311
0.036698069092265
0.036184073172914
0.03564779630821
0.035089749819288
0.034510246876468
0.033909990235915
0.033289192971856
0.032648903404898
0.031989005063909
0.031311195076557
0.042332882500531
0.04230919055256
0.042261181118352
0.04218785823948
0.042088647890734
0.041963444781023
0.041812415118014
0.04163576897211
0.041433650116346
0.041206140605958
0.040953300811669
0.040675206352013
0.04037195719348
0.040043684360168
0.039690534523008
0.039312683071546
0.038910311275236
0.038483644205741
0.038032900576283
0.037558373837412
0.037060316321669
0.036539117002188
0.035995040587108
0.03542862025656
0.034840073813781
0.034230174605729
0.033598941501469
0.032947576245539
0.032275487224279
0.031584552173373
0.043108366077266
0.043084150560916
0.043035154604004
0.042960475817879
0.04285959440146
0.042732399397674
0.042579019528399
0.042399621887753
0.042194311242125
0.04196313472915
0.04170611672904
0.041423295065261
0.041114726559867
0.040780498718699
0.040420708729915
0.040035486984838
0.039624960159567
0.039189311230672
0.038728697224613
0.038243379362069
0.037733535181206
0.037199545079625
0.036641570406656
0.03606018816022
0.035455446824999
0.034828275702846
0.034178357382487
0.033507268697658
0.032813579022444
0.032099708693003
0.044180327104125
0.04415567181668
0.044105788387869
0.044029778126037
0.043927127079845
0.043797715619079
0.043641645219464
0.043459041988677
0.043249961943902
0.043014401243095
0.042752329823063
0.042463729203623
0.042148593026565
0.041806944891563
0.04143880884337
0.041044247495247
0.040623305398787
0.040176100403622
0.039702696293578
0.039203302032181
0.038677982535138
0.038127098568209
0.037550658014781
0.036949290364103
0.036322794864007
0.035672304624508
0.034997005721336
0.034298964451515
0.033575514044894
0.032829769190059
0.045500311194439
0.045475265200237
0.04542458472208
0.045347363176952
0.045243074597282
0.04511157633486
0.044952933199857
0.04476722131403
0.044554435418566
0.044314504349198
0.044047323957506
0.043752798272595
0.043430834349102
0.043081367902804
0.042704322745648
0.042299667198602
0.04186733244863
0.041407343576201
0.040919635170728
0.040404337914071
0.039861361299884
0.03929102691959
0.038693133472735
0.038068359850584
0.037416172873226
0.036737943384948
0.036032212878139
0.035301650490159
0.034542024530178
0.033757336673755
0.047024859497437
0.046999535477841
0.046948282475526
0.04687018957776
0.046764713809893
0.046631677830942
0.046471095627723
0.046282978404105
0.046067243291355
0.045823733568743
0.045552250031694
0.045252596233199
0.044924566883283
0.044567982911554
0.044182637740716
0.043768375269422
0.043324978483862
0.042852347421914
0.042350247295045
0.041818698428546
0.041257407613659
0.040666630165809
0.040045896857884
0.039395923352793
0.038715762531317
0.038007045211708
0.037267531753874
0.036500585380551
0.035700102384261
0.034871098169483
0.048714555105455
0.048689148607484
0.048637717232206
0.048559346019343
0.048453468666838
0.048319862153993
0.048158476158715
0.04796924193249
0.047751982186255
0.047506435913236
0.047232287402421
0.046929215930945
0.04659687688138
0.046234947564484
0.045843058593408
0.045420896247351
0.044968057361506
0.044484280313642
0.043969116859812
0.043422438846288
0.042843698783647
0.042233050090337
0.041589692929456
0.040914355038431
0.040205592051724
0.039465296665441
0.038690314486352
0.037884757239088
0.037040355157962
0.03616318952799
0.050533267249923
0.050508047481721
0.050456988913323
0.050379167925432
0.050273986150083
0.050141164816283
0.049980577161472
0.04979206029303
0.049575326202584
0.049329991252172
0.049055602083016
0.048751689942055
0.048417743693862
0.048053267332166
0.047657695059651
0.047230520173252
0.046771113127246
0.046279010193067
0.045753502253106
0.045194268548557
0.044600451535966
0.043972058030885
0.043307890717027
0.042608650215847
0.041872309282327
0.041101002065342
0.04029053041686
0.039445771605675
0.038556017459817
0.037628393425083
0.052447715415065
0.052423015952017
0.052373004485666
0.0522967526691
0.052193626213334
0.052063282446112
0.05190550713815
0.051720029499447
0.051506434478102
0.051264197312159
0.05099270662725
0.050691323102405
0.050359343018113
0.049996067840409
0.049600702030721
0.049172509772106
0.048710594089052
0.048214246083597
0.047682446254994
0.047114631871757
0.046509576496853
0.045867086601147
0.045185497294869
0.044465428644681
0.043704184150678
0.042904095093669
0.042059798018832
0.041176912481984
0.040242043575018
0.039263254069996
0.05442719090906
0.054403396097241
0.054355207849193
0.054281702302259
0.054182209221755
0.054056315100435
0.053903707667181
0.053723996222004
0.05351662570789
0.053280915552175
0.053016078125332
0.05272128170829
0.052395605584891
0.052038121591622
0.051647773285156
0.05122356066144
0.050764279379815
0.050268931458376
0.049736137354537
0.04916503926593
0.048553981657078
0.047902509063276
0.047208417462328
0.04647217830057
0.045690340259986
0.044865362856617
0.043990604407135
0.043072358874338
0.042094322619331
0.041065293618941
0.056443490425814
0.056421022006164
0.05637550976233
0.056306046428526
0.056211928401829
0.05609266669239
0.055947842685028
0.055776936278578
0.055579242380523
0.055353913416313
0.055099972444591
0.054816379203323
0.05450197519021
0.054155577520369
0.053775841080757
0.053361469679146
0.052910915056117
0.052422847536978
0.051895480052776
0.051327604932125
0.050717078347626
0.050063114844053
0.049362900196148
0.048616675830184
0.047820152619172
0.046975823496122
0.046075666462708
0.045126534773087
0.044109022907543
0.043032359434166
0.058470956669889
0.05845025898036
0.058408322088535
0.058344269784269
0.058257370170318
0.058147056664632
0.058012799086586
0.057853942222442
0.057669625383493
0.057458827632532
0.057220374597644
0.056953006522889
0.056655313445734
0.056325839571895
0.055962927988693
0.055564958242428
0.055130007077323
0.054656374234049
0.054141822477229
0.053584740268626
0.052982440008367
0.052333734185622
0.051635130537766
0.050886546733569
0.050082777883446
0.049226230771427
0.04830741396282
0.047333575913594
0.046282049506211
0.045162080681741
0.060486560472554
0.060468084422411
0.060430636826246
0.060373388777897
0.060295587400922
0.060196589434653
0.06007575162514
0.059932282409106
0.059765165223801
0.059573205186954
0.059355028682889
0.059109152024242
0.058833906985196
0.058527554169181
0.058188111424578
0.057813613020684
0.057401736102241
0.056950376656476
0.056456812247367
0.055918977120356
0.055333591340653
0.054698992040661
0.054010947497209
0.053268948681831
0.052466804943143
0.051606693392099
0.050677580443541
0.049686896833167
0.048608591412308
0.047451401672081
0.062469984219581
0.062454171700381
0.062422110158241
0.062373036011035
0.062306185011019
0.062220840983424
0.062116250043691
0.061991488012833
0.061845387971893
0.06167658690912
0.061483517258387
0.061264474527286
0.061017533722681
0.060740669524148
0.060431570286176
0.060087914406477
0.059706965962915
0.059286191214973
0.058822357162837
0.058312900018666
0.057753909109375
0.057143175237973
0.056475676049221
0.055750366764999
0.054960012949859
0.054106398176578
0.053176893478814
0.052178850692725
0.051082755987597
0.049896197557097
0.064403677451766
0.064390946886327
0.064365121933175
0.064325523390527
0.064271387152046
0.064201930945201
0.064116296729318
0.064013436445788
0.063892044284185
0.063750601530189
0.063587359379996
0.063400403753242
0.063187563488508
0.062946534561928
0.062674682107754
0.062369328292379
0.0620273232304
0.061645689900859
0.061220671234654
0.060749170294246
0.060226620487805
0.059650201089589
0.059014061870306
0.058316511908465
0.057549231598632
0.056713430867851
0.055794857416384
0.054800477474983
0.053697285165254
0.052490962548976
0.066272866447776
0.066263599528294
0.066244790249424
0.066215862590589
0.066176065388002
0.06612455973353
0.066060393806249
0.065982409363719
0.06588917894209
0.065779046990297
0.065650103433574
0.065500243882017
0.065327070842572
0.065128018870034
0.064900147496183
0.064640433866333
0.064345326116898
0.06401140309998
0.06363438683975
0.063210624125156
0.062734882576807
0.062203674241367
0.06161030107487
0.060952317867007
0.060220299306933
0.059414692129656
0.058519625603585
0.05754133460118
0.056443351174722
0.055228577128465
0.068065511202865
0.068060043682027
0.068048934881364
0.068031734074336
0.068007717044593
0.067975998795053
0.067935547117328
0.067885111670597
0.067823165942582
0.067747942481719
0.067657396719834
0.067549260907415
0.067420939783989
0.067269633608231
0.067092125132018
0.066885069957864
0.066644539791335
0.066366682358342
0.066046717482986
0.065680429360851
0.065261928362657
0.064787017113166
0.064248150052232
0.063642027618661
0.062958119992613
0.062195914501388
0.061337966040307
0.060389406775072
0.059310416749536
0.058100131245598
0.069772199524638
0.069770813393649
0.069767983496138
0.069763404226211
0.069756392246111
0.069746030252354
0.069731221681812
0.06971064539103
0.069682702529465
0.069645543752129
0.069597022869937
0.069534742890706
0.06945594719145
0.069357638038201
0.069236360429389
0.069088484221105
0.068909743228949
0.068695882495892
0.068441653291844
0.068142288452201
0.067791267720485
0.067383663493555
0.066911102868996
0.066369352880114
0.065746802847005
0.06504178503702
0.064235348841224
0.063331127995509
0.062286176040798
0.061094787959707
0.071385997859121
0.071388914453427
0.071394821312473
0.071403579402104
0.071414561964826
0.071426830984805
0.071439242851764
0.071450430180361
0.071458751736837
0.071462309838877
0.071458894265549
0.071446019057799
0.071420809367136
0.071380114182872
0.071320288614013
0.071237464515286
0.071127087379287
0.070984544894684
0.070804165933085
0.070580665844466
0.07030692997143
0.069977309487841
0.069582631665073
0.069117696291768
0.068569849925634
0.06793612954245
0.067196140926337
0.06635158551594
0.065356686073581
0.064199765957104
0.072902250087541
0.072909632905549
0.072924615641967
0.072947243273776
0.072976959572598
0.073012821590646
0.073053657759188
0.073098079358831
0.073144435470385
0.073190817819487
0.073234993050329
0.073274428888935
0.073306179451705
0.073326992379818
0.073333089176444
0.07332042266142
0.073284209078795
0.073219541583319
0.073120382303661
0.072980992235139
0.072793699872271
0.072552189621863
0.072246485480941
0.071870463542962
0.071410400463437
0.070862096342905
0.070203724673999
0.069434798634069
0.068506764709867
0.067400570510433
0.07431834443672
0.074330309986417
0.07435459941274
0.074391451490426
0.074440394976934
0.074500501654115
0.074570593211872
0.074649278512117
0.074734927669515
0.074825667823807
0.074919291921339
0.075013263750713
0.075104613721091
0.075190043016441
0.075265703798415
0.075327435429498
0.075370294956723
0.075389157108542
0.075377687159335
0.075329782874892
0.075237260873194
0.075093257561042
0.074886943105088
0.074611431564
0.074251651260519
0.073802534202687
0.073240463990906
0.072563611587951
0.07172010626206
0.070681859129793
0.075633430254327
0.075650050175198
0.075683792564429
0.075735082787201
0.075803537819959
0.075888258620847
0.075988092763687
0.076101668146052
0.076227397548981
0.07636348292948
0.076507793738824
0.076657834916866
0.076810668364609
0.076963005804757
0.077111003678211
0.077250448749907
0.077376323995669
0.077483353175332
0.077565007451031
0.077614902785328
0.077624445532151
0.077586354797684
0.077488965322312
0.077324905347642
0.077077280450649
0.076740761285474
0.076288153321845
0.075719282109806
0.074975940258426
0.074027832648584
0.076848185352331
0.076869411988474
0.076912606623804
0.076978410071582
0.07706652045191
0.077176019247421
0.077305780323453
0.077454505732896
0.077620733101975
0.077802773789478
0.077998558451591
0.078205649327824
0.078421209401751
0.078642023137707
0.078864335182516
0.079083929166947
0.079295824530405
0.079494620457358
0.079673752746668
0.079826530036876
0.079944205767394
0.080018975702644
0.080038748768154
0.079995570483893
0.079871120597304
0.07965994184141
0.079329192408679
0.078881785525011
0.07824475337268
0.077408706736312
0.077964816410183
0.077990331762587
0.078042526609549
0.07812251399428
0.078230164020321
0.078364419967504
0.078523983741917
0.078707613183013
0.078914295166991
0.07914254408269
0.079390261282091
0.079655023982827
0.079934147904972
0.080224535477206
0.080522578652676
0.080824081004138
0.08112422019763
0.081417456187366
0.081697406266937
0.081956880905169
0.082187463389774
0.08238018468863
0.082523736241412
0.082607837832113
0.082615977245056
0.082538926291753
0.082345249648942
0.082030649937734
0.08150394735844
0.080764386406855
0.078987330366424
0.079016768823268
0.079076868699658
0.079169772192949
0.079295767074903
0.079453853191639
0.079642255215649
0.079858880074758
0.080104451414184
0.080377525679581
0.080675903016445
0.080997251136043
0.081339096951343
0.081698519413472
0.0820721013189
0.082455711990091
0.0828447797658
0.083233676524913
0.08361640131102
0.083985224384868
0.084332569656527
0.084647710174193
0.084921625753798
0.085139028589125
0.085290433127037
0.0853533906785
0.085319035195269
0.085149739447441
0.084798209912991
0.084099651599305
0.030657750741082
0.030032112357315
0.029392227180012
0.028739275168766
0.028074370586207
0.027398361402457
0.026711903654413
0.026015594306613
0.025310063995073
0.0245960102978
0.023874189498379
0.023145394618682
0.022410438708984
0.021670148007683
0.020925361685726
0.020176933355032
0.019425731489911
0.018672637948693
0.017918545849909
0.017164357284116
0.016410983285116
0.015659345664278
0.014910385715896
0.014165075061936
0.013424399762133
0.012689079733594
0.011959807740548
0.011237475707248
0.010523029509139
0.0098173687808334
0.0091213299252369
0.0084357019670757
0.0077612380615988
0.0070986639481248
0.0064486757557743
0.0058119412950825
0.0051890897522942
0.0045807189033388
0.0039873777917934
0.0034095881569909
0.0028478081599311
0.0023024842289148
0.0017739696166038
0.0012626443627947
0.00076872994760853
0.00029256436753857
-0.0001658259123405
-0.00060610046548081
-0.0010286247164153
-0.0014330814205749
0.03092128090853
0.03028843363701
0.029639273144278
0.028976579455392
0.028302122631249
0.027616668038202
0.026920531541204
0.026214018943112
0.025497613737937
0.02477197835381
0.024037879267538
0.023296120336066
0.022547514721731
0.021792885786415
0.021033077041412
0.02026895913491
0.019501430972821
0.018731416833277
0.017959861607361
0.017187726122972
0.016415980308088
0.015645593526897
0.014877513224414
0.014112635814649
0.013351805946489
0.012596195009297
0.011846999197034
0.011105154862977
0.010371510701766
0.0096469287007878
0.0089322858539232
0.0082284516304021
0.0075362689370486
0.0068565492589969
0.006190062164947
0.0055375430452892
0.0048996766464018
0.0042771176785269
0.0036704546154164
0.0030802597611257
0.0025070093373055
0.001951201336764
0.001413174777585
0.00089338171506813
0.00039197627355279
-9.0556335326013e-05
-0.00055433499736831
-0.00099860311018441
-0.0014238246947546
-0.0018280540196309
0.031415989817325
0.030762089379153
0.030087293509053
0.029397961133849
0.028697464946356
0.02798658024178
0.027265062828098
0.026532746022147
0.025789926660124
0.025037293875188
0.024275713374133
0.02350606973825
0.022729217459302
0.021945998760466
0.021157274430074
0.020363941282004
0.019566934019964
0.018767218273938
0.017965781911746
0.017163628092563
0.016361771273466
0.015561235618511
0.014763059206185
0.013968306397397
0.013178082138841
0.012393417789536
0.011615306631078
0.010844755647977
0.010082752709857
0.0093302628078553
0.0085882290391034
0.0078575734805652
0.0071391846353172
0.0064339191807747
0.0057425847496131
0.0050659570521498
0.0044047484102235
0.0037596511710389
0.003131267402272
0.0025202115504679
0.0019269511942098
0.0013520459166724
0.00079578408589658
0.00025873575423674
-0.00025907927330298
-0.00075690242743301
-0.0012351366667163
-0.0016922600619497
-0.0021290291017295
-0.0025405863158634
0.032115815490247
0.031428120990653
0.030713038670593
0.029982609082186
0.029242601943772
0.028493693335494
0.027734716790834
0.026964774143369
0.026183889282236
0.025392796137271
0.024592498425089
0.023783977187065
0.022968117077445
0.022145754490435
0.021317741435234
0.020484978754301
0.019648419071019
0.018809055293055
0.017967907933742
0.017126017413172
0.016284440668561
0.015444249470273
0.014606526647534
0.013772358391042
0.012942820654568
0.012118987717223
0.011301932665081
0.010492715653744
0.0096923792020792
0.0089019458075579
0.0081224095057552
0.007354738563994
0.0065998621594168
0.0058586814077444
0.0051320434592177
0.0044207725604672
0.0037256158799397
0.0030473202024017
0.0023865106712432
0.0017438707382417
0.0011198656256867
0.00051515955957169
-7.0018092876761e-05
-0.00063490514732132
-0.0011796638710353
-0.0017031094770527
-0.0022060435006249
-0.0026857427612475
-0.0031432641072899
-0.0035689900693544
0.033005488988947
0.032273238780851
0.031505074231835
0.030720883902511
0.029929606304077
0.029131648914813
0.028324520314051
0.027506326067594
0.02667674490457
0.025836590089906
0.024987053302926
0.02412923461741
0.023264044116347
0.022392296405343
0.021514819959848
0.020632510065762
0.01974633151286
0.018857299499369
0.017966460404002
0.017074881155251
0.016183645308835
0.015293851142436
0.01440660834731
0.013523034178614
0.012644249468225
0.011771376929092
0.010905534149241
0.010047827698832
0.0091993455950959
0.0083611573577296
0.0075343031230147
0.0067197998199052
0.005918622300851
0.0051317230991559
0.0043599936286101
0.0036043151367949
0.002865474218853
0.0021442846753896
0.0014413974600954
0.00075758469912806
9.3305803100736e-05
-0.00055063558186853
-0.0011740877637143
-0.0017760263890204
-0.0023568488541906
-0.0029147839244265
-0.0034511483794696
-0.0039615834867537
-0.0044475460123795
-0.0048930280242656
0.034075334739037
0.033288922316964
0.032455777402416
0.03160601033336
0.030752545534673
0.029895317076923
0.029030074417198
0.02815366204992
0.027265360818447
0.026366118207042
0.025457376130183
0.024540381527248
0.023616067586523
0.022685213568543
0.021748612832631
0.020807148764025
0.019861794948757
0.018913585632491
0.017963588510427
0.017012891490651
0.016062599730542
0.015113835811541
0.014167737839295
0.013225456398785
0.012288148999785
0.011356973859539
0.010433084160158
0.0095176249650747
0.008611723886671
0.0077164929364426
0.006833014554199
0.0059623523839795
0.0051055246551549
0.0042635351616819
0.0034373176118531
0.0026278119204438
0.0018358413716158
0.0010622928408012
0.00030783883140463
-0.00042664526659414
-0.0011407160120557
-0.0018333992491952
-0.0025046479577179
-0.0031531092650329
-0.0037794843630357
-0.004381262046162
-0.0049604224108188
-0.0055105343405061
-0.0060335624099663
-0.006505277018598
0.035318887306812
0.034469523498742
0.033560094781203
0.032633571055601
0.031707716326065
0.030781719360122
0.02984908000995
0.028905105226888
0.027948640213517
0.026980838180948
0.026003460807929
0.02501792883895
0.024025192669797
0.023025980382417
0.022021038298725
0.021011232283892
0.019997542431995
0.018981019821544
0.017962749983033
0.016943837339074
0.015925403820373
0.014908591211312
0.013894559862309
0.012884485390089
0.011879551951569
0.010880947195335
0.0098898554945561
0.00890745534438
0.007934908734509
0.0069733658934588
0.0060239469845695
0.005087758891644
0.0041658594079862
0.0032593019978819
0.002369059059392
0.0014961305374239
0.00064137293930125
-0.00019424758634787
-0.0010100427503682
-0.001805018738298
-0.0025787614878395
-0.0033300938342612
-0.0040591074774543
-0.0047640504080092
-0.0054460087732196
-0.0061015643432906
-0.0067335237825847
-0.0073328977650882
-0.0079022497678764
-0.0084070632229507
0.036732320979681
0.035811907164986
0.034815335001869
0.033801378081523
0.032793528391824
0.031789872615639
0.030781103512216
0.02976070266573
0.028727061758881
0.027681631274798
0.026626569650621
0.025563496584682
0.024493370182181
0.023416850087921
0.022334624892486
0.021247539780664
0.02015658118216
0.019062816174417
0.017967345339227
0.016871285185296
0.015775769096097
0.014681952312876
0.01359101145306
0.012504141236996
0.011422547070114
0.01034744051788
0.0092800313492887
0.0082215263455317
0.0071731165264369
0.0061359849891247
0.0051112838461953
0.0041001584354315
0.0031037001179799
0.0021230085529067
0.0011590892614972
0.00021300129962699
-0.00071437245492852
-0.0016219827278671
-0.0025091357179405
-0.0033747062080247
-0.0042183294617236
-0.0050385930287649
-0.0058357707106156
-0.006607635618097
-0.007355754963698
-0.0080756182368739
-0.008771047298293
-0.0094299581344915
-0.010055631676913
-0.010600992802528
0.038313569465123
0.037314584254425
0.036220327308377
0.035108658423172
0.034009711141703
0.032920011381129
0.031826815688079
0.030721487537417
0.029601974989748
0.028470140992675
0.027328624996632
0.026179267427202
0.025023019851849
0.023860455138668
0.022692195557693
0.021519065397838
0.020342059643982
0.019162261810223
0.017980785214263
0.016798754290849
0.015617308924933
0.014437612666592
0.013260853226525
0.012088239211813
0.01092099178203
0.0097603401326555
0.0086075124395792
0.0074637362644696
0.0063302237332744
0.0052081835644134
0.0040987919521678
0.0030032255478748
0.0019226009802173
0.00085805763481074
-0.00018937558739224
-0.0012185848114984
-0.0022286720787582
-0.0032185046309131
-0.00418739940946
-0.0051340893864926
-0.0060582871408482
-0.0069583123602161
-0.0078346762845336
-0.008684594524697
-0.0095102309512701
-0.010305777707292
-0.011076292444153
-0.011806002599518
-0.012499040096469
-0.013093220377567
0.040061551052627
0.038976971065618
0.037774738464704
0.036555437204446
0.035356758007289
0.034173084884386
0.032987536719835
0.031789072504038
0.030575244320886
0.02934846912286
0.028111956060057
0.026867781287917
0.02561686985589
0.024359688833669
0.023096788557881
0.021828975958867
0.02055725922611
0.019282739832588
0.018006542045033
0.016729794498801
0.015453639168822
0.014179243169267
0.012907799955035
0.011640525842378
0.010378650904177
0.0091234145423047
0.0078760556505916
0.0066378146322221
0.0054099153439228
0.0041935816269003
0.0029900026009684
0.0018003762037272
0.00062583260838709
-0.00053245867409584
-0.0016734585897917
-0.002796006721015
-0.0038992069748388
-0.0049818466301023
-0.0060432767457255
-0.0070820807856051
-0.0080980868189986
-0.0090893136703701
-0.010056581911733
-0.010996459824112
-0.011911853371979
-0.012795428990564
-0.013653754395715
-0.014466706943285
-0.015239463434209
-0.015891845245935
0.041975532254934
0.040798794994527
0.039478539492222
0.03814206758138
0.03683550945511
0.035550380650114
0.034264892551336
0.032965336268176
0.031648965362441
0.030318920614401
0.028979070245998
0.027631730669567
0.02627777330172
0.024917541027055
0.023551511548093
0.022180482607515
0.020805483032729
0.019427634846551
0.018048071708306
0.016667923044425
0.015288329118375
0.013910456695309
0.012535500517414
0.011164678670867
0.0097992219667696
0.0084403694268429
0.007089360227923
0.0057474381381541
0.0044158290670585
0.003095761062132
0.0017884222425272
0.00049501703931764
-0.0007833272364131
-0.0020454252241899
-0.0032902465610967
-0.0045165970981655
-0.0057236060060611
-0.0069099891656489
-0.0080751645047076
-0.0092175622279532
-0.010337177485918
-0.011431695935269
-0.012502340039957
-0.013544932167322
-0.014563297919015
-0.015548317240738
-0.016508390644078
-0.017418287690562
-0.018284470899709
-0.019005542000395
0.044054591966448
0.042779590960665
0.041331554853717
0.03986883266693
0.03844679385036
0.037053191171096
0.035660502025205
0.034252132200761
0.032825197371814
0.031383760095048
0.029932431393851
0.028473757484037
0.027008522232313
0.025536928821733
0.024059388511927
0.022576704078133
0.021089935434868
0.019600228743213
0.018108726030345
0.016616554613856
0.015124849508688
0.013634773177441
0.012147517319194
0.010664298318739
0.0091863428240494
0.0077148752013131
0.006251122600109
0.0047963184074085
0.0033516755467299
0.0019184123747752
0.00049770123088403
-0.0009092637326592
-0.002301379835848
-0.0036774661557866
-0.0050365266543987
-0.0063773526132242
-0.0076991312698148
-0.0090005212746575
-0.010281052632476
-0.011539002391293
-0.01277460288874
-0.013985173490121
-0.015172460076336
-0.016331432259837
-0.017467063363537
-0.018568166700922
-0.019645390915314
-0.020667571837766
-0.021642782803041
-0.022444694291948
0.046297152992594
0.044918262032194
0.043333073134666
0.041735605322973
0.040191122293983
0.038682530469242
0.037175710406945
0.035651040319249
0.034105735760742
0.032545004540721
0.030974270481113
0.029396279777991
0.027811688352236
0.026220550348189
0.024623226713011
0.02302054626921
0.021413613568235
0.019803603637195
0.018191666832724
0.016578927144984
0.014966513097124
0.013355579293745
0.011747307503755
0.010142902971869
0.0085435949494602
0.0069505723291956
0.0053650433718113
0.0037882174020553
0.0022212732562922
0.00066539778825228
-0.00087827421364749
-0.0024085794166405
-0.0039244653930542
-0.0054247806890389
-0.0069085983432142
-0.0083747213338758
-0.009822439780027
-0.0112503761809
-0.012658235651076
-0.014044145776889
-0.015408673338252
-0.016748732231205
-0.018066756474511
-0.019356729600136
-0.020625070544813
-0.021858182650678
-0.023069498711643
-0.024220984807217
-0.025322911344352
-0.026219933464656
0.048700589339202
0.047212709002439
0.045481522364536
0.043741566681484
0.04206843330832
0.040438892666612
0.038811360865229
0.037163156555099
0.035491922215865
0.033804252603895
0.032106429965225
0.030401347290219
0.02868948897047
0.026970761459882
0.025245503663967
0.023514599150404
0.02177921334763
0.020040555712382
0.018299786348123
0.01655802728135
0.014816402337937
0.013076061528014
0.011338177908709
0.0096039362362971
0.0078744995754003
0.0061510855498192
0.00443486001365
0.0027269816818313
0.0010285766245211
-0.00065922039168593
-0.002335342232173
-0.0039986844151146
-0.0056482792181223
-0.0072830345663196
-0.0089021379012209
-0.010504437131168
-0.01208938653917
-0.01365560049463
-0.015203046435277
-0.016729709901522
-0.018236627018938
-0.01972025999725
-0.021183955782768
-0.022620545368447
-0.024038289574638
-0.025420747936566
-0.026784813205144
-0.028084446801887
-0.029332767332368
-0.030341119904341
0.051260900638392
0.049659525675643
0.047774207673338
0.045884981440035
0.044077888719011
0.042322057055305
0.040567609310872
0.038788923014907
0.036984492917188
0.035162548522034
0.033330239126836
0.031490525536147
0.029643678373339
0.027789474177878
0.025928273582238
0.024061050639846
0.02218904982287
0.020313521793453
0.018435640007347
0.016556529246836
0.014677312280785
0.012799133908083
0.010923153434234
0.0090505329954851
0.0071824211755252
0.0053199767088068
0.0034643146067372
0.0016165369676013
-0.00022230315960406
-0.0020511456428268
-0.0038690248303674
-0.005674926096244
-0.0074680117851458
-0.0092472841046966
-0.011012104815651
-0.012761404927215
-0.014494884098416
-0.016211181847119
-0.017910645545469
-0.01959112695873
-0.021254316880245
-0.022896168948905
-0.024521254591091
-0.026121053568493
-0.027706209770337
-0.029256925118649
-0.030794471912328
-0.032263353678977
-0.033680502940806
-0.034817745433463
0.053972462457679
0.052253765162124
0.050207113907524
0.048163027501756
0.046217710831184
0.044330925839167
0.042443770134996
0.040527991325756
0.03858346181133
0.036620280109099
0.034646420298069
0.032664806656228
0.030675463811915
0.028678079383739
0.026673095881256
0.024661620034172
0.022644994344808
0.020624518561728
0.018601387343662
0.016576738110127
0.014551702509719
0.012527427314409
0.010505060843637
0.0084857431498332
0.0064705861555473
0.0044606864382645
0.0024570900223988
0.00046082702036876
-0.0015271489479584
-0.003505880724451
-0.0054745439198441
-0.0074322477591572
-0.0093783407809515
-0.011311960950408
-0.013232719590007
-0.01513967463892
-0.017032874158679
-0.018911022335288
-0.020774995806743
-0.022622521614025
-0.024456187287236
-0.026271354377319
-0.028074243882179
-0.029854697078606
-0.031626495974644
-0.033365828715315
-0.035099657698961
-0.036761597651683
-0.038373935259897
-0.039663530922065
0.056827837633491
0.054988776068347
0.05277477620399
0.050571683275477
0.048485067456246
0.046463401956407
0.044438196718599
0.042379118397618
0.040288035338059
0.038177107298341
0.036055023929217
0.033924547916
0.031785447793149
0.029637394134989
0.027480989536187
0.025317519602888
0.023148444024944
0.020975122055112
0.018798781649834
0.016620588152588
0.014441697324889
0.012263269613288
0.010086448552844
0.0079123496772785
0.0057420369665918
0.0035765421156814
0.0014168262844404
-0.00073617676620929
-0.0028816430155323
-0.0050187492921419
-0.007146852987968
-0.0092652318022234
-0.011373483711393
-0.013470939337346
-0.015557546388385
-0.01763255537888
-0.019696481619395
-0.021748162401751
-0.023789171923028
-0.025817160405476
-0.027835884395775
-0.029840055116731
-0.031838059142474