/*--------------------------------*- C++ -*----------------------------------*\
| =========                 |                                                 |
| \\      /  F ield         | OpenFOAM: The Open Source CFD Toolbox           |
|  \\    /   O peration     | Version:  2112                                  |
|   \\  /    A nd           | Website:  www.openfoam.com                      |
|    \\/     M anipulation  |                                                 |
\*---------------------------------------------------------------------------*/
FoamFile
{
    version     2.0;
    format      ascii;
    arch        "LSB;label=32;scalar=64";
    class       surfaceScalarField;
    location    "17";
    object      phi;
}
// * * * * * * * * * * * * * * * * * * * * * * * * * * * * * * * * * * * * * //

dimensions      [0 3 -1 0 0 0 0];

oriented        oriented;

internalField   nonuniform List<scalar> 
43645
(
0.39512397097143
-5.0978839005477e-06
0.39513923634059
-1.5265341188177e-05
0.39516466049468
-2.5424123827288e-05
0.39520027970445
-3.5619178504494e-05
0.39524610065165
-4.5820915760382e-05
0.39530209133032
-5.5990647516311e-05
0.39536819226644
-6.6100905505308e-05
0.39544433473024
-7.6142433806863e-05
0.39553044777159
-8.6113012066442e-05
0.39562646028384
-9.6012483658932e-05
0.39573229191474
-0.00010583160303854
0.39584785697949
-0.00011556503757695
0.39597305407377
-0.00012519706782376
0.39610778332133
-0.00013472922174605
0.39625192377328
-0.000144140426803
0.39640537068409
-0.00015344688624236
0.39656798013172
-0.00016260942364219
0.39673965301012
-0.00017167285490372
0.39692020603492
-0.00018055300176929
0.39710956533456
-0.00018935927698436
0.39730746939025
-0.00019790403337892
0.39751391650358
-0.00020644709125541
0.39772848192471
-0.00021456539928513
0.39795134983241
-0.00022286788595992
0.39818174415656
-0.00023039430250547
0.39842030404985
-0.0002385598716287
0.39866548117615
-0.00024517710463248
0.3989189970032
-0.00025351580554448
0.39917757512784
-0.00025857810348581
-0.00026783370318403
0.3994454088526
0.37294727218597
-9.8152855634244e-06
0.37296146542914
-2.9458537757384e-05
0.37298532425989
-4.9282907113517e-05
0.37301888778021
-6.9182651381457e-05
0.37306216086879
-8.9093957470111e-05
0.37311511696533
-0.00010894669797648
0.37317770567005
-0.00012868956505842
0.37324986853832
-0.00014830525785179
0.37333154542438
-0.00016778985487258
0.37342267650042
-0.00018714351740011
0.37352319339285
-0.00020634845416199
0.3736330230405
-0.0002253946448437
0.37375207750352
-0.00024425149142539
0.37388027089366
-0.00026292257334643
0.37401749733727
-0.00028136683275024
0.37416366760872
-0.00029961712079693
0.37431865506944
-0.00031759684822982
0.37448237774071
-0.0003353954906567
0.37465467217156
-0.00035284739771924
0.37483548211854
-0.00037016918950111
0.37502456873839
-0.00038699061921102
0.37522194636619
-0.00040382468530084
0.37542721807707
-0.00041983707667325
0.37564057924061
-0.00043622901611176
0.37586129412829
-0.00045110915690214
0.37609000137093
-0.00046726708093175
0.37632522425108
-0.00048039995140377
0.3765686551694
-0.00049694669077528
0.37681716610258
-0.00050708900457925
-0.00052554393238697
0.37707487636489
0.35201546005867
-1.4377773451436e-05
0.35202915232653
-4.3150757262797e-05
0.35205206217514
-7.2192707145051e-05
0.35208425247822
-0.0001013729063735
0.35212574448096
-0.00013058591302247
0.35217651941194
-0.00015972158278142
0.3522365331534
-0.00018870326147694
0.35230573602118
-0.00021750808167208
0.35238407971833
-0.00024613350922652
0.35247151891919
-0.00027458267656991
0.35256800130822
-0.00030283080265684
0.35267347145552
-0.00033086475267175
0.35278785968141
-0.00035863967896362
0.35291110007714
-0.0003861629316967
0.35304310694344
-0.00041337366266508
0.35318381413439
-0.00044032427618813
0.35333311735753
-0.00046690003665335
0.35349096179173
-0.0004932398907683
0.3536572071489
-0.0005190927214195
0.35383182862276
-0.00054479063030843
0.35401460757514
-0.00056976953894494
0.35420559567213
-0.00059481274983505
0.35440440734446
-0.0006186487167251
0.35461128763735
-0.00064310927670497
0.35482549190784
-0.00066531339508494
0.35504773518743
-0.00068951032798588
0.35527648364248
-0.00070914837373745
0.35551356081245
-0.00073402382812016
0.35575566725572
-0.00074919541614578
-0.00077702415880163
0.35600714751515
0.33225842146409
-1.8755236095578e-05
0.33227156595164
-5.6295200955729e-05
0.3322935577281
-9.4184439521563e-05
0.3323244674722
-0.00013228260679386
0.33236432525867
-0.0001704436566172
0.33241312080125
-0.00020851708336854
0.33247081850483
-0.00024640092407859
0.33253737919554
-0.00028406873237874
0.33261276801516
-0.0003215222899066
0.3326969563283
-0.00035877095176347
0.33278991070539
-0.00039578514288397
0.33289159698728
-0.00043255099866764
0.33300196769606
-0.00046901035288497
0.33312098164786
-0.00050517684954339
0.33324857804498
-0.00054097002674906
0.3333847198542
-0.00057646605313431
0.33352933060734
-0.00061151075827926
0.33368239032146
-0.00064629957396052
0.33384378740673
-0.00068048977633509
0.33401353797608
-0.00071454116967755
0.33419144749341
-0.00074767902666695
0.33437761708152
-0.00078098230850689
0.33457167212209
-0.00081270372802776
0.3347739254809
-0.00084536260622894
0.33498361484859
-0.00087500273347583
0.33520156546838
-0.00090746091828207
0.33542616347795
-0.00093374635366821
0.33565943865877
-0.00096729897941552
0.33589787520905
-0.00098763193778153
-0.0010253903374218
0.33614624141761
0.31361024419061
-2.2942009099182e-05
0.31362282571008
-6.8876680794219e-05
0.31364388896116
-0.0001152476509209
0.31367352132891
-0.00016191493537913
0.31371176365679
-0.00020868594616172
0.31375861412668
-0.00025536751585259
0.31381404626182
-0.00030183302284714
0.31387803312722
-0.00034805556241113
0.3139505558594
-0.00039404498780883
0.31403160566244
-0.00043982072154085
0.31412117148291
-0.00048535093117897
0.31421924437113
-0.00053062385568262
0.31432580321868
-0.00057556917026442
0.31444083632234
-0.00062020992391406
0.31456431268304
-0.00066444635905358
0.31469623023165
-0.00070838357406439
0.3148365460661
-0.00075182656577544
0.31498528232575
-0.00079503580715335
0.31514236239957
-0.00083756982422136
0.31530785218071
-0.0008800309251596
0.31548158709469
-0.00092141391527562
0.3156637287441
-0.00096312393260219
0.31585391750573
-0.0010028924644299
0.31605254932522
-0.0010439944003285
0.31625884381822
-0.0010812972009772
0.31647376019688
-0.0011223772711062
0.31669559244176
-0.0011555785724471
0.31692661485169
-0.0011983213631728
0.31716305041168
-0.0012240674722714
-0.0012724932115509
0.31741015331276
0.29600868502228
-2.6925136564361e-05
0.29602066645111
-8.0858073022902e-05
0.29604074184481
-0.00013532300801864
0.29606902022294
-0.00019019327739515
0.29610555611382
-0.00024522180169282
0.29615035763937
-0.00030016900688118
0.29620340858248
-0.00035488393237508
0.29626469588735
-0.0004093428345799
0.29633421902122
-0.000463568089972
0.2964119919662
-0.00051759363573641
0.29649802937597
-0.00057138831116952
0.29659235122428
-0.00062494567510062
0.29669496676842
-0.00067818468647084
0.29680589825004
-0.00073114137841188
0.29692514925189
-0.0007836973346353
0.29705275814716
-0.00083599244373926
0.29718872136791
-0.00088778976161588
0.29733310988465
-0.00093942429946827
0.29748588871054
-0.00099034862620392
0.29764718140424
-0.0010413235952424
0.2978168603794
-0.0010910928671237
0.2979951567328
-0.0011414202627961
0.29818173249568
-0.0011894682042196
0.2983770771217
-0.0012393390031836
0.29858039709898
-0.0012846171550594
0.29879279814671
-0.0013347782953842
0.29901248249115
-0.0013752628932735
0.29924198567426
-0.0014278245226976
0.29947726083693
-0.0014593426120292
-0.001519303736022
0.29972407138571
0.2793949919275
-3.0682513205261e-05
0.2794063061254
-9.2172238553131e-05
0.2794252888873
-0.00015430573764387
0.27945207283709
-0.00021697719540404
0.27948672760672
-0.00027987654028845
0.27952927242695
-0.00034271379683754
0.27957970254412
-0.00040531402017856
0.27963802023054
-0.00046766049246361
0.27970424513009
-0.00052979296192079
0.27977841629944
-0.00059176477835546
0.2798605768088
-0.00065354879475419
0.27995077863804
-0.00071514747938581
0.28004906489462
-0.00077647091900062
0.28015549564787
-0.00083757210836648
0.28027011345606
-0.0008983151203143
0.28039300198683
-0.00095888095260238
0.28052420253303
-0.001018990286549
0.28066384080952
-0.001079062555128
0.2808119302009
-0.0011384379971966
0.28096865869087
-0.0011980520650679
0.28113394361853
-0.0012563777748902
0.2813080927071
-0.0013155693315214
0.28149079895886
-0.0013721744362175
0.28168265209239
-0.001431192116805
0.28188285694955
-0.0014848219922375
0.28209267076829
-0.0015445920938547
0.2823102196658
-0.0015928117702985
0.28253830088395
-0.0016559057203077
0.28277262208932
-0.0016936637973874
-0.001766129191208
0.28301944756594
0.26371371439495
-3.4187430270032e-05
0.26372427384031
-0.00010273165469864
0.2637420295202
-0.00017206138842732
0.26376713666998
-0.00024208431648448
0.26379968049126
-0.00031242033351797
0.26383969217382
-0.00038272545198868
0.26388717921491
-0.00045280103462512
0.26394216009593
-0.00052264134754399
0.26400467581127
-0.00059230865212868
0.26407479207805
-0.00066188102074528
0.26415258233385
-0.00073133902700264
0.26423813283416
-0.00080069795686829
0.26433152329763
-0.00086986136044286
0.26443285468222
-0.00093890347160369
0.26454221228219
-0.0010076726996533
0.26465972903684
-0.0010763976871647
0.26478549615445
-0.0011447573846822
0.2649196989826
-0.0012132653642071
0.26506240592839
-0.0012811449243662
0.26521387485987
-0.0013495209781811
0.26537407678166
-0.0014165796786149
0.26554340124959
-0.0014848937814789
0.26572158421756
-0.0015503573863693
0.26590931886705
-0.001618926748432
0.2661058261978
-0.001681329305139
0.26631251224815
-0.0017512781262002
0.26652745620731
-0.001807755711371
0.2667536996623
-0.0018821491572754
0.266986757014
-0.0019267211315975
-0.0020127160822969
0.26723334392383
0.24891251511084
-3.7409826786602e-05
0.24892222931175
-0.0001124458301565
0.24893861174768
-0.00018844379901539
0.24896184068439
-0.0002653132282294
0.24899201676958
-0.00034259639430565
0.24902918309083
-0.00041989174938786
0.24907335982978
-0.00049697775038466
0.24912458249734
-0.0005738639925194
0.24918291446894
-0.00065064060186436
0.24924844876417
-0.0007274152947376
0.24932129007592
-0.00080418031824925
0.24940156020876
-0.00088096806982792
0.24948937729424
-0.00095767842675232
0.24958488515645
-0.0010344113152191
0.24968821467511
-0.0011110022003517
0.24979955085094
-0.0011877338455176
0.24991903908163
-0.001264245598422
0.250046927877
-0.001341154142968
0.25018334692415
-0.001417563955324
0.25032862778731
-0.0014948018253464
0.25048280438196
-0.0015707562575377
0.25064635097719
-0.0016484403610447
0.25081906076865
-0.0017230671623106
0.25100172946963
-0.0018015954338299
0.25119361787604
-0.0018732176959913
0.25139626957743
-0.0019539298118823
0.25160775890553
-0.0020192450236918
0.25183133607907
-0.0021057263151002
0.25206240238121
-0.0021577874184789
-0.0022583497519358
0.2523080360673
0.23494199781981
-4.0320065045804e-05
0.23495077894057
-0.00012122692835906
0.23496564310981
-0.00020330794580121
0.23498679152031
-0.00028646161655204
0.2350143399824
-0.00037014483468573
0.23504834325064
-0.00045389499633465
0.23508883395412
-0.00053746843311956
0.23513586423827
-0.00062089425638247
0.23518951952727
-0.00070429587117125
0.23524992043943
-0.0007878161876996
0.23531720356992
-0.00087146343016919
0.23539152623057
-0.00095529071240207
0.23547304545585
-0.0010391976345716
0.23556194861996
-0.0011233144623338
0.23565841385908
-0.0012074674230438
0.23576267954651
-0.0012919995169232
0.23587494844074
-0.0013765144771093
0.23599553404077
-0.0014617397277662
0.23612463279551
-0.0015466626952274
0.23626265175288
-0.001632820768077
0.23640969705226
-0.0017178015425607
0.23656632784002
-0.0018050711345492
0.23673241063655
-0.0018891499447766
0.23690883832091
-0.0019780231041352
0.2370949403069
-0.0020593196680217
0.23729237800439
-0.0021513674953619
0.23749927509875
-0.0022261421040845
0.23771903732404
-0.0023254885265716
0.23794705937302
-0.0023858094541195
-0.0025019471928767
0.23819065682834
0.22175554107525
-4.2891331583968e-05
0.22176330952204
-0.00012899535555018
0.22177652261072
-0.00021652101496141
0.22179540346207
-0.00030534244859702
0.22182008216589
-0.00039482351957359
0.22185062439585
-0.00048443720767799
0.22188707453509
-0.00057391855417923
0.22192950052706
-0.00066332023052435
0.22197800887296
-0.00075280419972571
0.22203274635402
-0.00084255365178519
0.22209388015978
-0.00093259721946777
0.22216160258304
-0.0010230131195896
0.22223610941214
-0.0011137044481065
0.22231763046467
-0.0012048354996737
0.22240639139499
-0.0012962283386431
0.22250268358159
-0.0013882916891227
0.22260676895502
-0.001480599836559
0.22271902587163
-0.0015739966306517
0.22283972190912
-0.0016673587193283
0.22296933907096
-0.0017624379166968
0.22310806465891
-0.0018565271175494
0.22325653988678
-0.001953546349561
0.22341472189787
-0.0020473319431689
0.22358359082887
-0.0021468920224664
0.22376257795158
-0.0022383067781758
0.22395343458715
-0.0023422241183639
0.22415439876567
-0.0024271062701035
0.22436896238741
-0.0025400521359783
0.2245926438848
-0.0026094909396384
-0.0027421406909669
0.2248328373957
0.20930914205444
-4.5101419584441e-05
0.20931583178584
-0.0001356850697013
0.20932728242892
-0.00022797164083569
0.2093437372108
-0.00032179721341079
0.20936533901934
-0.00041642531132292
0.2093921631951
-0.00051126136687142
0.20942426463607
-0.00060601997889242
0.20946172551921
-0.0007007810976625
0.20950467156773
-0.00079575023259695
0.20955327349688
-0.00089115556555517
0.20960772690709
-0.00098705061469639
0.20966825631026
-0.0010835425080672
0.2097350942857
-0.0011805424092485
0.20980851157174
-0.0012782527717053
0.20988878007601
-0.0013764968292957
0.20997624180746
-0.0014757534072235
0.21007121811463
-0.0015755761307272
0.21017414994378
-0.0016769284470128
0.21028537893712
-0.0017785877001945
0.21040545901503
-0.0018825179822979
0.21053466675085
-0.0019857348413051
0.21067371949481
-0.002092599081575
0.21082268286561
-0.0021962953022239
0.21098260987046
-0.0023068190156366
0.21115307019631
-0.0024087670925005
0.21133586952814
-0.0025250234387178
0.21152943422049
-0.0026206709511099
0.21173725839535
-0.0027478762997206
0.21195513499141
-0.0028273675250498
-0.0029773537961675
0.21219034810808
0.1975612692375
-4.6934112710377e-05
0.19756683191167
-0.00014124772873966
0.19757643718258
-0.00023757689660898
0.19759034588195
-0.0003357058977312
0.19760871168741
-0.0004347911019288
0.19763161786886
-0.00053416753359308
0.19765912808
-0.00063353017553547
0.19769133651734
-0.00073298952065941
0.19772838547706
-0.00083279917823765
0.19777046640297
-0.00093323647754835
0.1978178000293
-0.0010343842274148
0.19787063941824
-0.0011363818835896
0.1979292505833
-0.0012391535611907
0.19799394094401
-0.0013429431195002
0.19806502654235
-0.0014475824150446
0.19814289630549
-0.0015536231579507
0.19822792925252
-0.001660609065653
0.19832062444165
-0.0017696236242009
0.19842139882027
-0.0018793620671545
0.1985308725849
-0.0019919917354137
0.19864941838145
-0.0021042806265707
0.19877782061084
-0.0022210012998061
0.19891627098123
-0.0023347456616492
0.19906587673705
-0.0024564247605894
0.19922638461712
-0.0025692749618678
0.19939961235694
-0.0026982511679133
0.19958425530093
-0.0028053138846402
0.19978371344316
-0.0029473344317354
0.19999422143598
-0.0030378755081118
-0.0032058720789861
0.20022273972931
0.18647272332567
-4.838005562963e-05
0.18647713092607
-0.00014565531566729
0.18648484082812
-0.00024528678514642
0.18649612840378
-0.0003469934598967
0.18651115569707
-0.0004498183818583
0.18653001179833
-0.00055302362154923
0.18655276692963
-0.00065628529369293
0.18657952454383
-0.00075974712178574
0.18661044017349
-0.00086371479500329
0.18664572194326
-0.00096851823452419
0.18668561148375
-0.0010742737553253
0.18673038560667
-0.0011811559940376
0.18678033928898
-0.0012891072312589
0.18683581136978
-0.0013984151881941
0.18689715746299
-0.0015089284963838
0.18696480778108
-0.0016212734643079
0.18703919641149
-0.0017349976845805
0.18712087363292
-0.0018513008343035
0.18721033100786
-0.0019688194310102
0.18730824683035
-0.0020899075469631
0.18741509487089
-0.0022111286564132
0.18753171444334
-0.0023376208616976
0.18765843984284
-0.0024614710508009
0.18779641004319
-0.0025943949507279
0.18794558801088
-0.0027184529195494
0.18810775566056
-0.0028604188076987
0.18828196216197
-0.0029795203763558
0.18847140728444
-0.003136779544786
0.18867294619896
-0.0032394144136408
-0.0034259082812352
0.18889298241089
0.17600650582961
-4.9437113821823e-05
0.17600975180222
-0.00014890127616058
0.17601555131762
-0.0002510862883475
0.17602419082445
-0.00035563295452335
0.17603583802406
-0.00046146556933819
0.17605058545311
-0.00056777103850208
0.17606850740832
-0.00067420723690642
0.17608971343308
-0.00078095313458875
0.17611436843344
-0.00088836978353895
0.17614269252209
-0.00099684231139012
0.17617494320722
-0.0011065244288316
0.17621141534396
-0.001217628119202
0.17625242735409
-0.0013301192299781
0.17629834304704
-0.0014443308698134
0.17634955205553
-0.0015601374937223
0.17640651832875
-0.0016782397264686
0.17646972589516
-0.0017982052401379
0.1765397683829
-0.001921343311316
0.17661720912273
-0.0020462601603487
0.17670277393334
-0.00217547234723
0.17679704061893
-0.0023053953319046
0.17690088859587
-0.0024414688287109
0.17701480920909
-0.0025753916543346
0.17713994730856
-0.002719533040687
0.17727651996459
-0.0028550255662953
0.17742622116966
-0.0030101200036596
0.17758853995387
-0.0031418391516566
0.17776636342873
-0.0033146030110308
0.17795735242938
-0.0034304034060557
-0.0036356627059865
0.17816710686302
0.16612769519712
-5.0110320546969e-05
0.16612979404811
-0.00015100011607201
0.16613370302663
-0.0002549952557029
0.16613971570013
-0.00036164561684327
0.16614800254405
-0.00046975240215697
0.16615865705516
-0.0005784255385394
0.16617175494229
-0.00068730511307228
0.16618740845592
-0.0007966066372972
0.1662057877005
-0.00090674901733593
0.16622711969489
-0.0010181742950218
0.16625167225501
-0.0011310769783424
0.16627975195064
-0.0012457078042396
0.16631169428158
-0.0013620615504599
0.16634788069472
-0.0014805172725291
0.16638872807066
-0.001600984859374
0.16643472558423
-0.0017242372298141
0.16648640048669
-0.00184988013255
0.166544379328
-0.0019793221426917
0.16660929290629
-0.0021111737289334
0.16668190225098
-0.002248081682386
0.16676288929362
-0.0023863823652835
0.16685315683758
-0.0025317363636342
0.16695336482854
-0.0026755996365487
0.16706463603927
-0.002830804242914
0.1671874760338
-0.0029778655526
0.16732343586132
-0.0031460798231836
0.16747252758778
-0.0032909308703522
0.16763721079234
-0.0034792862080994
0.16781613787913
-0.003609330485682
-0.0038333778429822
0.16801385302394
0.15680332983304
-5.0411453967404e-05
0.15680431607036
-0.00015198634309015
0.15680638677083
-0.00025706594583467
0.15680983930696
-0.00036509814267071
0.15681484389873
-0.00047475698377898
0.15682149244539
-0.0005850740751459
0.15682985932767
-0.00069567198549553
0.1568400560403
-0.00080680334019617
0.15685225356422
-0.00091894653171929
0.15686668060868
-0.0010326013300595
0.15688360943791
-0.0011480057983009
0.15690335177057
-0.0012654501276841
0.15692625324333
-0.0013849630141272
0.15695270517085
-0.0015069691909712
0.15698314384335
-0.001631423522922
0.15701807451111
-0.0017591678886617
0.15705805931871
-0.0018898649313879
0.1571037468879
-0.0020250097032445
0.15715582760588
-0.0021632544385066
0.15721508508423
-0.0023073391525442
0.15728230189412
-0.0024535991672985
0.1573583868535
-0.0026078213154357
0.15744417516906
-0.002761387944892
0.15754074031909
-0.0029273693860714
0.15764890519758
-0.003086030424573
0.15777002323534
-0.0032671978547219
0.15790470377598
-0.0034256114050474
0.1580548637884
-0.0036294462148398
0.15822032718004
-0.0037747938718263
-0.0040173858665475
0.15840433520973
0.14800229775562
-5.0358270398866e-05
0.14800222434554
-0.00015191292308279
0.14800253855596
-0.0002573801463836
0.14800353807383
-0.00036609765086479
0.14800539077375
-0.00047660967436153
0.14800818464011
-0.00058786793245978
0.14801199008708
-0.00069947742380538
0.14801691449426
-0.00081172773902218
0.14802312538301
-0.00092515741249091
0.14803084794378
-0.0010403238830809
0.14804035292224
-0.0011575107692818
0.14805195073945
-0.0012770479375371
0.14806598990563
-0.0013990021731045
0.14808286392231
-0.0015238432005017
0.14810301968836
-0.0016515792819292
0.14812696954104
-0.0017831177343371
0.14815530016074
-0.0019181955442464
0.14818867210227
-0.00205838163806
0.14822782416567
-0.0022024064954354
0.14827355113522
-0.0023530661159072
0.14832672629688
-0.0025067743231378
0.14838825115518
-0.0026693461683268
0.14845913169459
-0.0028322684793549
0.14854037139188
-0.0030086090789017
0.14863312669165
-0.0031787857203442
0.14873851101237
-0.0033725821718746
0.14885779015637
-0.003544890545813
0.14899222570988
-0.0037638817653474
0.14914297378119
-0.0039255419401458
-0.0041861416903964
0.14931172960866
0.13969523217817
-4.9973179100782e-05
0.13969416606224
-0.00015084679667044
0.13969283045761
-0.00025604453138539
0.13969151941852
-0.00036478660190726
0.13969039569678
-0.00047548594340943
0.13968954149789
-0.00058701372499956
0.13968902113509
-0.00069895705315493
0.13968893496495
-0.00081164156165761
0.13968944304229
-0.00092566548322413
0.13969076201678
-0.0010416428514277
0.13969315529316
-0.001159904039941
0.13969692589256
-0.0012808185314762
0.13970241791265
-0.0014044941879446
0.13971001982852
-0.0015314451112166
0.13972017960127
-0.0016617390496628
0.13973340859271
-0.0017963467208073
0.13975030523546
-0.0019350921822003
0.13977153421245
-0.0020796106104015
0.13979786582134
-0.0022287380999778
0.13983010129212
-0.0023853015826748
0.13986918252051
-0.002545855547982
0.13991600450474
-0.0027161681495545
0.13997171576054
-0.0028879797327798
0.14003725265542
-0.0030741459720575
0.14011407832758
-0.0032556113914369
0.14020306664001
-0.0034615704838288
0.14030616100465
-0.0036479849104279
0.14042390186868
-0.0038816226295649
0.14055889070156
-0.0040605307730166
-0.0043382406821918
0.14071098969404
0.1318544142235
-4.9282661281749e-05
0.13185243366556
-0.00014886622555965
0.13184957399367
-0.00025318484633504
0.13184612235679
-0.00036133495266114
0.13184223403231
-0.00047159760770429
0.13183798378895
-0.00058276347155681
0.1318334280328
-0.00069440128808996
0.13182865726448
-0.00080687078545151
0.13182382036829
-0.00092082858009621
0.1318191209011
-0.0010369433780269
0.1318148100097
-0.0011555931429454
0.13181117761068
-0.0012771861272445
0.13180855657752
-0.0014018731498855
0.13180732336929
-0.0015302118982449
0.13180791763449
-0.0016623333102804
0.13181084240985
-0.0017992714916904
0.13181669363438
-0.0019409434024275
0.13182613496047
-0.0020890519323985
0.13183994485614
-0.0022425479919126
0.13185893561541
-0.0024042923386559
0.13188407727175
-0.0025709972016411
0.13191628858294
-0.002748379458773
0.13195678672661
-0.002928477875327
0.13200651487729
-0.0031238741225051
0.13206710300357
-0.0033161995183993
0.13213930592873
-0.003533773410526
0.13222557893161
-0.0037342579154823
0.13232592103986
-0.0039819647402387
0.13244437059096
-0.0041789803261646
-0.0044724177012133
0.13257854760873
0.12445367810598
-4.8314411103918e-05
0.12445086841282
-0.00014605651266417
0.12444662444819
-0.00024894086142391
0.12444122222422
-0.00035593270933923
0.12443480726071
-0.00046518262641426
0.12442744610671
-0.0005754023014577
0.12441918749277
-0.00068614265968714
0.1244101091525
-0.0007977924321572
0.12440034394034
-0.00091106335618213
0.12439007787829
-0.0010266773051799
0.12437954685328
-0.0011450621079151
0.12436902242998
-0.001266661694439
0.12435882098515
-0.0013916716959327
0.12434929940285
-0.0015206903070421
0.12434088201363
-0.001653915912364
0.12433405420492
-0.0017924436744307
0.12432939788537
-0.0019362870745862
0.12432756779326
-0.0020872218322868
0.12432932857244
-0.0022443087635635
0.12433550933437
-0.0024104730936732
0.1243470560959
-0.0025825439570689
0.12436496614449
-0.0027662895022434
0.12439039632311
-0.0029539080499645
0.12442449004082
-0.0031579678374585
0.12446872380873
-0.0033604332848293
0.12452417169849
-0.0035892213000237
0.12459303137478
-0.0038031175924711
0.12467563369172
-0.0040645670582885
0.12477662313656
-0.0042799697717119
-0.0045884287892195
0.12489263422504
0.11746832668826
-4.709729388897e-05
0.11746477515455
-0.00014250494737306
0.11745929333938
-0.00024345901334291
0.11745214159432
-0.00034878093222181
0.11744345505662
-0.00045649605848704
0.11743328924522
-0.0005652364618652
0.11742168696276
-0.00067454035103581
0.11740871272993
-0.00078481817484503
0.117394477592
-0.00089682819521145
0.11737914598231
-0.0010113456735419
0.11736293633241
-0.0011288524369172
0.11734609612622
-0.0012498214677242
0.11732892190921
-0.0013744974588139
0.11731174282854
-0.001503511206556
0.11729496622763
-0.0016371392918903
0.11727904582642
-0.0017765232539113
0.11726454809876
-0.0019217893279391
0.11725209680939
-0.0020747705244053
0.11724244221708
-0.0022346541533843
0.11723640676643
-0.002404437626058
0.11723489663361
-0.0025810338083922
0.11723899691224
-0.0027703897664168
0.11724969515271
-0.0029646062775192
0.11726853985562
-0.0031768125291597
0.11729642558459
-0.0033883190042938
0.11733567680435
-0.0036284725120228
0.11738660652746
-0.0038540473092409
0.11745221421788
-0.0041301747431897
0.11753317232117
-0.0043609278692863
-0.0046878157797455
0.11763255931943
0.11087505606156
-4.5668415979323e-05
0.11087085727384
-0.00013830611200306
0.11086428661856
-0.00023688830849425
0.11085558499801
-0.00034007926293707
0.11084488813209
-0.00044579914578816
0.11083224025301
-0.00055258853820297
0.11081766932079
-0.00065996937633311
0.11080122250875
-0.00076837132208124
0.11078298832818
-0.00087859397533886
0.11076311498057
-0.00099147228766788
0.11074180020535
-0.0011075376242152
0.11071926081111
-0.0012272820365315
0.11069577046026
-0.0013510070714399
0.11067162253138
-0.0014793632414471
0.1106472083459
-0.0016127250705217
0.11062293319146
-0.001752248063908
0.11059935844389
-0.0018982145453297
0.11057703877289
-0.0020524508190022
0.11055674680572
-0.0022143621527978
0.11053921452744
-0.0023869053156159
0.11052540414475
-0.0025672233952217
0.11051632203422
-0.0027613076273377
0.11051294625186
-0.0029612304688027
0.11051700405411
-0.0031808703072951
0.11052881324178
-0.0034001281701962
0.11055240905098
-0.0036520683018248
0.11058508697847
-0.0038867252194875
0.11063672690734
-0.0041818146562447
0.11069360513792
-0.0044178060843021
-0.0047735338121026
0.11077932318894
0.10465187771605
-4.4080106526724e-05
0.10464715769445
-0.00013358602601307
0.10463965436133
-0.00022938490972533
0.10462959278474
-0.00033001762173925
0.10461712576036
-0.00043333205874095
0.10460232320654
-0.00053778592381488
0.104585188792
-0.00064283490313303
0.10456569539392
-0.00074887786686495
0.10454392644171
-0.000856824967142
0.10452003108736
-0.00096757687814742
0.1044941812577
-0.0010816877399421
0.1044665622877
-0.0011996630123468
0.10443742546003
-0.0013218701899037
0.10440702576578
-0.0014489634936855
0.10437573437682
-0.0015814336283832
0.1043438959628
-0.0017204095972406
0.10431207086406
-0.0018663893945762
0.10428071139153
-0.0020210912954783
0.1042506582318
-0.002184308943426
0.10422243983246
-0.0023586868685916
0.10419726748201
-0.0025420509994357
0.10417569556237
-0.0027397356652378
0.10415933804281
-0.0029448729097178
0.10414895649508
-0.0031704887231388
0.10414600392268
-0.0033971755644225
0.10415314887712
-0.0036592132261697
0.10416837910412
-0.0039019554193476
0.10420602735173
-0.0042194628789344
0.10424283544554
-0.0044546141538909
-0.004847998803785
0.10431730046631
0.098777996078451
-4.2357846788849e-05
0.098772905155137
-0.00012849502758686
0.09876462621426
-0.00022110589319383
0.098753415177604
-0.00031880651054252
0.098739392988569
-0.00041930979684681
0.098722708884104
-0.00052110174813951
0.098703491864415
-0.00062361781360939
0.098681362583182
-0.00072674851672936
0.098656552049716
-0.00083201436537429
0.09862918125359
-0.00094020601399216
0.098599380270324
-0.0010518866888099
0.098567308351086
-0.0011675910252787
0.098533195834407
-0.0012877576055124
0.09849727008393
-0.0014130376756112
0.098459870110735
-0.0015440335879207
0.098421286899433
-0.0016818263191096
0.098382055024181
-0.0018271574533467
0.098342532914427
-0.0019815691209725
0.09830359731144
-0.0021453732776763
0.098265569093887
-0.0023206585909497
0.098229934861296
-0.0025064167103065
0.098196626645916
-0.0027064273972818
0.098168352414555
-0.0029165986300421
0.098143782975062
-0.0031459192394706
0.098128212041658
-0.0033816045910588
0.098117024387005
-0.003648025535893
0.098119948595386
-0.0039048795961753
0.098126969284742
-0.0042264835393131
0.098150454752825
-0.0044780995927904
0.098246973869415
-0.0049445178858666
0.3948088141731
0.0046365947012359
0.3903318802787
0.0044769339156777
0.3860191169196
0.0043127633802637
0.3818749207588
0.0041441961821003
0.37790354635697
0.003971374423347
0.37410910508654
0.0037944412922938
0.37049555556709
0.0036135495416196
0.36706669350923
0.0034288620804255
0.36382614484734
0.0032405486847762
0.36077736217824
0.0030487826923432
0.35792362277753
0.0028537394242363
0.35526802638405
0.0026555964173255
0.35281349232588
0.0024545340822391
0.35056275577203
0.0022507365781749
0.34851836370596
0.0020443920905438
0.34668267060092
0.0018356931297167
0.34505783419433
0.0016248364313319
0.34364581128197
0.0014120229372418
0.34244835365612
0.0011974576507189
0.34146700411588
0.00098134956519063
0.34070309176236
0.00076391237840293
0.3401577258242
0.00054536596308748
0.33983178069275
0.00032594515629034
0.33972582305949
0.00010595765811946
0.33984049165864
-0.00011466857439552
0.34017608531246
-0.00033559362903593
0.34073250235897
-0.00055641702183647
0.34150950964973
-0.00077700726604822
0.34250665456095
-0.00099714488661947
0.343723254702
-0.001216600116428