/*--------------------------------*- C++ -*----------------------------------*\
| =========                 |                                                 |
| \\      /  F ield         | OpenFOAM: The Open Source CFD Toolbox           |
|  \\    /   O peration     | Version:  2112                                  |
|   \\  /    A nd           | Website:  www.openfoam.com                      |
|    \\/     M anipulation  |                                                 |
\*---------------------------------------------------------------------------*/
FoamFile
{
    version     2.0;
    format      ascii;
    arch        "LSB;label=32;scalar=64";
    class       volVectorField;
    location    "17";
    object      U;
}
// * * * * * * * * * * * * * * * * * * * * * * * * * * * * * * * * * * * * * //

dimensions      [0 1 -1 0 0 0 0];

internalField   nonuniform List<vector> 
22000
(
(1.0000010467917 -2.6502484129897e-05 0)
(1.0000274220939 -7.9467447365265e-05 0)
(1.000078273084 -0.00013256966123128 0)
(1.0001547262337 -0.00018578610714623 0)
(1.0002573411293 -0.00023897887111544 0)
(1.0003861169596 -0.00029197771089055 0)
(1.0005407433889 -0.00034465273862318 0)
(1.0007208872639 -0.00039695732186871 0)
(1.000926299441 -0.0004488775079653 0)
(1.0011568090948 -0.00050041079027467 0)
(1.0014122492985 -0.00055150861253599 0)
(1.0016924410876 -0.00060214415556184 0)
(1.0019971441178 -0.00065223592066305 0)
(1.0023261173011 -0.00070179299121181 0)
(1.0026790526977 -0.00075070442719122 0)
(1.0030556957651 -0.00079905582470427 0)
(1.0034556823393 -0.00084663934833726 0)
(1.0038787755575 -0.00089369194749197 0)
(1.0043245184648 -0.000939766937488 0)
(1.0047927304508 -0.00098544538067023 0)
(1.0052827828802 -0.0010297308750675 0)
(1.0057946357408 -0.0010740069009746 0)
(1.0063273364137 -0.0011160222848018 0)
(1.0068811662957 -0.0011590261957928 0)
(1.0074545538195 -0.0011978960070924 0)
(1.0080484818717 -0.0012402002412029 0)
(1.0086601911669 -0.0012742382808136 0)
(1.0092921518326 -0.0013175402554369 0)
(1.0099393200253 -0.0013432946819799 0)
(1.0106072949075 -0.0013919194532336 0)
(1.0000004803584 -7.7776505880172e-05 0)
(1.0000265714102 -0.00023339828896609 0)
(1.0000772107384 -0.00038964959843001 0)
(1.0001534928629 -0.00054639371663523 0)
(1.000256050792 -0.0007031656155783 0)
(1.000384965668 -0.00085943088654187 0)
(1.0005399726797 -0.0010147955295552 0)
(1.0007207642992 -0.001169123806716 0)
(1.0009270971818 -0.0013223804103568 0)
(1.0011588217767 -0.0014745606520474 0)
(1.0014157744763 -0.0016255217385794 0)
(1.0016978150544 -0.001775181312283 0)
(1.0020046957026 -0.0019232987718996 0)
(1.0023362400173 -0.0020698969227748 0)
(1.0026920996476 -0.0022146536670593 0)
(1.0030721374666 -0.0023578158086807 0)
(1.0034758762036 -0.0024987852474289 0)
(1.0039033116564 -0.0026382449026418 0)
(1.0043537124367 -0.0027749101720026 0)
(1.0048273766481 -0.0029104475218174 0)
(1.0053230437985 -0.003041995150386 0)
(1.0058416815268 -0.0031735097269648 0)
(1.006380926494 -0.0032985455860643 0)
(1.0069432134025 -0.0034263743762328 0)
(1.0075238806144 -0.0035423804303598 0)
(1.0081285426595 -0.0036681056729903 0)
(1.0087477441785 -0.0037702879133062 0)
(1.0093939604507 -0.0038986743664024 0)
(1.0100477222261 -0.003977335232675 0)
(1.0107364490209 -0.004120552154367 0)
(1.0000005064973 -0.00012632087385196 0)
(1.0000271279806 -0.00037927025771091 0)
(1.0000787332642 -0.00063358769258743 0)
(1.0001563613891 -0.00088897453131869 0)
(1.0002606150136 -0.0011445810444599 0)
(1.0003915893717 -0.0013994771953851 0)
(1.0005490438963 -0.001652999546948 0)
(1.000732706279 -0.0019049359364157 0)
(1.0009423522236 -0.0021552468571099 0)
(1.0011778736126 -0.0024039416916323 0)
(1.0014391183916 -0.0026507936207691 0)
(1.0017260100818 -0.0028956753779688 0)
(1.0020382948628 -0.0031381919073105 0)
(1.0023759016661 -0.0033783919113691 0)
(1.002738427137 -0.0036157448234878 0)
(1.0031259248005 -0.0038506803152047 0)
(1.0035377486091 -0.0040822076642969 0)
(1.0039742707499 -0.0043114915701526 0)
(1.0044343305219 -0.0045363842959628 0)
(1.0049190049163 -0.004759697777272 0)
(1.0054260117062 -0.004976627220126 0)
(1.0059579811092 -0.005193826982079 0)
(1.0065102047019 -0.0054004721474042 0)
(1.0070887428037 -0.0056121414777411 0)
(1.0076836542196 -0.005804302861939 0)
(1.0083085455816 -0.0060131237900198 0)
(1.0089421798378 -0.0061828044636966 0)
(1.009614794086 -0.0063967934676544 0)
(1.0102807208481 -0.0065277970442626 0)
(1.0110074553497 -0.0067673412877728 0)
(1.0000005212954 -0.00017288239923635 0)
(1.0000275644107 -0.00051913769948818 0)
(1.0000800315665 -0.00086760543882031 0)
(1.0001590099307 -0.0012178233597964 0)
(1.0002651190329 -0.0015685304995394 0)
(1.0003984667042 -0.0019183864734267 0)
(1.0005588185661 -0.0022664620726497 0)
(1.0007459327052 -0.0026124914946347 0)
(1.0009596057891 -0.0029564596451353 0)
(1.0011997889812 -0.00329842010487 0)
(1.0014663490709 -0.0036380827395122 0)
(1.0017593007818 -0.0039752982901988 0)
(1.0020783834909 -0.0043095270887237 0)
(1.0024236755643 -0.0046408678118437 0)
(1.0027946997446 -0.0049685839625884 0)
(1.0031917803818 -0.0052933269375709 0)
(1.0036140405162 -0.005613702261742 0)
(1.0040623845908 -0.0059314202393404 0)
(1.0045350582871 -0.0062434147309535 0)
(1.0050342343254 -0.0065537538132006 0)
(1.0055562099566 -0.0068555380161267 0)
(1.0061059469292 -0.0071583489281219 0)
(1.0066754688286 -0.0074466352851193 0)
(1.0072759098603 -0.0077427971039739 0)
(1.0078899681451 -0.0080116130062513 0)
(1.0085424251968 -0.0083050264557231 0)
(1.0091956259388 -0.0085429670093084 0)
(1.009904633048 -0.0088451404431848 0)
(1.0105872901035 -0.0090290065349832 0)
(1.0113670549257 -0.0093690254090739 0)
(1.0000005367922 -0.00021744840485793 0)
(1.0000279281245 -0.00065304020472079 0)
(1.0000811390004 -0.0010918860249211 0)
(1.0001613335887 -0.0015333122872484 0)
(1.0002691731125 -0.0019755941431492 0)
(1.0004047920692 -0.0024169595267807 0)
(1.0005679644767 -0.002856220376874 0)
(1.0007584840245 -0.0032930888977893 0)
(1.0009761732603 -0.0037276123069824 0)
(1.0012210610029 -0.0041599267243268 0)
(1.0014930429981 -0.0045897038149427 0)
(1.0017922548896 -0.0050167999955819 0)
(1.0021184338956 -0.0054405420481207 0)
(1.0024718529891 -0.0058611085524609 0)
(1.0028519495403 -0.006277559471041 0)
(1.0032593963122 -0.0066908176089946 0)
(1.0036930362504 -0.0070990699497228 0)
(1.0041544518232 -0.0075046551800029 0)
(1.0046411569219 -0.0079035173922217 0)
(1.0051567093347 -0.0083011249972375 0)
(1.0056956430718 -0.0086882875958315 0)
(1.0062658508725 -0.009077812593808 0)
(1.0068552888764 -0.0094489724802929 0)
(1.007481447183 -0.0098316561849514 0)
(1.0081178544702 -0.010178952510137 0)
(1.0088032566131 -0.010560075303766 0)
(1.0094795424663 -0.01086845035226 0)
(1.010232742144 -0.011263362745424 0)
(1.0109352298618 -0.01150204962676 0)
(1.011780197562 -0.01194928163742 0)
(1.0000005515115 -0.00025992373396072 0)
(1.0000281485283 -0.00078071264501598 0)
(1.0000818449328 -0.0013060564841878 0)
(1.0001628939754 -0.0018350142382852 0)
(1.0002720105952 -0.0023653264836907 0)
(1.0004093682108 -0.0028947558458862 0)
(1.0005747570337 -0.0034218587905133 0)
(1.0007680172723 -0.0039463605676566 0)
(1.000989006091 -0.0044684140142553 0)
(1.0012378491119 -0.0049882814558661 0)
(1.0015144830415 -0.0055056248240169 0)
(1.0018191941882 -0.0060203377408174 0)
(1.0021517265729 -0.0065316266973937 0)
(1.0025125922253 -0.0070397852074586 0)
(1.0029011396049 -0.0075436741658383 0)
(1.0033184629916 -0.0080445457563807 0)
(1.0037630910618 -0.008540154278598 0)
(1.0042374163943 -0.00903356212051 0)
(1.0047381135528 -0.009519646382353 0)
(1.0052703793764 -0.010005439439325 0)
(1.0058267069781 -0.0104792434682 0)
(1.0064184342724 -0.010957426994087 0)
(1.0070287915248 -0.011413587779905 0)
(1.0076827070303 -0.011885849178367 0)
(1.0083430419086 -0.012314500699113 0)
(1.0090648384757 -0.012787689117625 0)
(1.0097661825031 -0.013169858466181 0)
(1.0105691859842 -0.013663557467243 0)
(1.0112933247473 -0.01396027213393 0)
(1.0122130130057 -0.014523240786152 0)
(1.0000005629339 -0.0003001319712357 0)
(1.0000281317396 -0.00090163328911787 0)
(1.0000818794872 -0.0015092829895492 0)
(1.0001631623221 -0.0021218123607035 0)
(1.0002727607027 -0.0027363478777502 0)
(1.0004108978226 -0.0033501471103354 0)
(1.0005773877524 -0.0039615129817839 0)
(1.0007721283135 -0.00457022180565 0)
(1.0009950211945 -0.0051765802426424 0)
(1.0012463076452 -0.005781025570932 0)
(1.0015259787521 -0.0063832426589234 0)
(1.0018345000067 -0.0069831979934787 0)
(1.002171634763 -0.007579994777967 0)
(1.0025381761728 -0.0081740812148439 0)
(1.0029333881858 -0.0087641281418278 0)
(1.003358853228 -0.0093517813794322 0)
(1.0038127678475 -0.0099343536654174 0)
(1.0042984498728 -0.010515733597181 0)
(1.0048116612031 -0.011089658285879 0)
(1.0053594503182 -0.01166489447512 0)
(1.0059320651807 -0.012227022391739 0)
(1.0065447056813 -0.012796313395066 0)
(1.0071753779869 -0.013340192011672 0)
(1.007857307424 -0.013905767878095 0)
(1.0085415414424 -0.014419419871498 0)
(1.0093012472067 -0.014989894505939 0)
(1.0100281369177 -0.015450172496011 0)
(1.0108843942866 -0.016049746610121 0)
(1.0116308807426 -0.016408822161607 0)
(1.0126322259469 -0.017097239418092 0)
(1.0000005698049 -0.00033783100617265 0)
(1.0000277944815 -0.0010150821889989 0)
(1.0000809947527 -0.0017003826029163 0)
(1.0001616489309 -0.0023920715172872 0)
(1.0002706160484 -0.0030865788060675 0)
(1.0004081781406 -0.0037806168654424 0)
(1.0005741795064 -0.0044722390783407 0)
(1.000768585396 -0.0051613144949461 0)
(1.0009913519734 -0.0058483561382843 0)
(1.0012428536688 -0.0065340288475189 0)
(1.0015231503994 -0.0072180770555232 0)
(1.0018329131835 -0.00790057930693 0)
(1.0021719403759 -0.0085805571174672 0)
(1.0025413442963 -0.0092586568567257 0)
(1.0029403166195 -0.0099333746267323 0)
(1.0033709857809 -0.010606817846997 0)
(1.0038312158037 -0.011275857928987 0)
(1.0043253444076 -0.011945313657476 0)
(1.0048481853374 -0.012607722496131 0)
(1.0054088033668 -0.01327375032504 0)
(1.0059950791395 -0.013926063516336 0)
(1.0066263815175 -0.014589156330959 0)
(1.0072751727478 -0.01522382675077 0)
(1.0079835861464 -0.01588686531267 0)
(1.0086900981648 -0.016489726222081 0)
(1.0094872749811 -0.01716328540693 0)
(1.0102387312894 -0.01770679264057 0)
(1.0111494870557 -0.018420051176324 0)
(1.0119179159534 -0.018846928620938 0)
(1.0130051699325 -0.019671299822681 0)
(1.0000005701716 -0.00037273644935194 0)
(1.0000270666708 -0.0011202132764803 0)
(1.0000789930528 -0.0018779534081171 0)
(1.0001579594082 -0.0026438360907586 0)
(1.0002649117501 -0.0034135116970779 0)
(1.0004001978625 -0.0041831086137408 0)
(1.0005636986518 -0.0049504367965257 0)
(1.0007554567698 -0.0057155019572114 0)
(1.0009754942094 -0.0064790790160521 0)
(1.0012243349658 -0.0072421159009681 0)
(1.0015021224125 -0.0080044572940292 0)
(1.0018097555235 -0.0087663355727052 0)
(1.0021470856374 -0.0095267172032687 0)
(1.0025155763323 -0.010286492512559 0)
(1.0029143666801 -0.011044006229833 0)
(1.0033461773904 -0.011801896156618 0)
(1.0038085575823 -0.012556605870566 0)
(1.0043069347192 -0.013313983716727 0)
(1.0048351795677 -0.014065331157465 0)
(1.0054044830064 -0.014823359297429 0)
(1.0060003254807 -0.015567673883509 0)
(1.0066464293242 -0.016327260934592 0)
(1.0073095874093 -0.017055932687447 0)
(1.0080411796656 -0.017820730726783 0)
(1.008766774494 -0.018517373552398 0)
(1.0095990118517 -0.019300108639676 0)
(1.0103725913816 -0.01993262998514 0)
(1.0113368244375 -0.020767772107901 0)
(1.0121256802898 -0.021268973640268 0)
(1.0133003082005 -0.022240152232104 0)
(1.0000005629721 -0.00040454729563575 0)
(1.0000258931354 -0.0012161279206256 0)
(1.0000757143141 -0.002040499758681 0)
(1.0001517710278 -0.0028750121259777 0)
(1.0002551006996 -0.0037144531304334 0)
(1.0003861229558 -0.0045543292255105 0)
(1.000544761878 -0.005392214108869 0)
(1.0007311453024 -0.0062282943347441 0)
(1.0009453698741 -0.0070636632142024 0)
(1.0011881213886 -0.0078996079050572 0)
(1.0014596420228 -0.0087361171484307 0)
(1.0017610777791 -0.0095736209400395 0)
(1.0020923527067 -0.01041106343584 0)
(1.0024553054783 -0.011249625502866 0)
(1.0028490487314 -0.012087533448113 0)
(1.0032769272742 -0.012928021980477 0)
(1.0037362107474 -0.013767137704504 0)
(1.0042334572551 -0.014611847083384 0)
(1.0047616417775 -0.015452212488262 0)
(1.0053341297632 -0.01630310454184 0)
(1.0059340626559 -0.017140989145425 0)
(1.0065895678205 -0.017999532375091 0)
(1.0072618481555 -0.018825343886665 0)
(1.0080115790856 -0.019696095661248 0)
(1.0087515253517 -0.020491265660486 0)
(1.0096144453036 -0.021389280462227 0)
(1.0104062514289 -0.022117116964543 0)
(1.0114206430401 -0.023082396728676 0)
(1.0122272902548 -0.023665475339577 0)
(1.0134879051568 -0.024794213218038 0)
(1.0000005471763 -0.00043297648914049 0)
(1.000024233976 -0.0013019675019504 0)
(1.0000710408287 -0.0021865829307665 0)
(1.0001428446976 -0.0030835715299948 0)
(1.0002407757489 -0.0039867783656386 0)
(1.0003653291203 -0.0048910518257432 0)
(1.000516477623 -0.005793737696394 0)
(1.0006944399117 -0.0066952467161351 0)
(1.0008993947737 -0.007597046501829 0)
(1.0011321972958 -0.0085008179348462 0)
(1.0013932001149 -0.0094067393004312 0)
(1.0016838075397 -0.010315481798035 0)
(1.0020040378043 -0.011226006030559 0)
(1.0023561200653 -0.0121398297221 0)
(1.0027391722478 -0.013055104954219 0)
(1.0031571779418 -0.013975724297836 0)
(1.0036071795849 -0.014897389276235 0)
(1.00409687446 -0.015828255862051 0)
(1.0046184306854 -0.016757186827929 0)
(1.0051873709077 -0.017701281818268 0)
(1.0057846538123 -0.018633876494745 0)
(1.0064427243375 -0.019593396300374 0)
(1.0071174833186 -0.020519219793428 0)
(1.0078786525848 -0.021499774706369 0)
(1.0086267450705 -0.022398197664589 0)
(1.0095140440125 -0.023417328843982 0)
(1.0103187537561 -0.02424713839456 0)
(1.0113776943592 -0.025350527837445 0)
(1.0121983630831 -0.02602399310741 0)
(1.0135407039519 -0.027320497466906 0)
(1.0000005222196 -0.00045777378475318 0)
(1.0000220662162 -0.0013769820768065 0)
(1.0000649038465 -0.0023149356629352 0)
(1.0001310380217 -0.0032677124149682 0)
(1.0002216897029 -0.0042281373700882 0)
(1.0003374307166 -0.0051903672367812 0)
(1.0004782863058 -0.0061515288982909 0)
(1.0006445681519 -0.0071122981597053 0)
(1.0008365418786 -0.008074570874589 0)
(1.0010552338304 -0.0090404733043658 0)
(1.0013011164726 -0.010010419881058 0)
(1.0015758556035 -0.010985364384205 0)
(1.0018795820845 -0.011964327654637 0)
(1.0022149189509 -0.012949207345325 0)
(1.0025810266704 -0.013938137891172 0)
(1.0029825239736 -0.014935722295665 0)
(1.0034162932307 -0.015937393000927 0)
(1.0038911447139 -0.016952543512149 0)
(1.0043985679941 -0.017968927276498 0)
(1.0049561574565 -0.019005885557294 0)
(1.0055429372263 -0.020033741342468 0)
(1.0061954426408 -0.0210956238137 0)
(1.0068647630416 -0.022123881823469 0)
(1.007629124138 -0.023217513151288 0)
(1.0083777735659 -0.024223705003394 0)
(1.0092813040383 -0.025369248182181 0)
(1.0100922100352 -0.026307875807339 0)
(1.0111878505284 -0.027556732723258 0)
(1.0120176168394 -0.028329951539798 0)
(1.0134345792658 -0.029803453302642 0)
(1.000000487686 -0.00047874272825173 0)
(1.0000193852395 -0.0014405809444323 0)
(1.000057286906 -0.0024245474331491 0)
(1.0001163110194 -0.0034259801318083 0)
(1.0001977643671 -0.0044366123950982 0)
(1.0003022934246 -0.0054498786474453 0)
(1.0004299772684 -0.0064626960194146 0)
(1.0005812188721 -0.0074760422960104 0)
(1.0007563719151 -0.0084922917667633 0)
(1.0009566296083 -0.0095140627773298 0)
(1.0011825898442 -0.010542052453428 0)
(1.0014361743386 -0.011577535339182 0)
(1.0017176432314 -0.012619641178121 0)
(1.0020300028108 -0.01367068484596 0)
(1.0023724936048 -0.014728851301176 0)
(1.0027503464481 -0.015799494508735 0)
(1.0031603641134 -0.016877880676289 0)
(1.0036124081233 -0.017974660013448 0)
(1.0040974525782 -0.019076624150738 0)
(1.0046350108388 -0.02020530107865 0)
(1.0052025045131 -0.02132824244365 0)
(1.005840197839 -0.022493068507789 0)
(1.0064950465108 -0.023625564615422 0)
(1.0072529608852 -0.024834753842082 0)
(1.0079933114695 -0.02595283349985 0)
(1.0089032085337 -0.027229280063301 0)
(1.0097122804564 -0.028283578121851 0)
(1.0108346330184 -0.029684324133122 0)
(1.011667399989 -0.030567393469231 0)
(1.0131491281869 -0.032225733889924 0)
(1.0000004436985 -0.00049575239250579 0)
(1.000016204118 -0.0014923680017919 0)
(1.0000482246985 -0.0025147246034807 0)
(1.0000987242573 -0.0035573535407496 0)
(1.000169087178 -0.004610831344905 0)
(1.0002600297873 -0.0056678428074294 0)
(1.0003716837514 -0.0067251039968967 0)
(1.0005045372238 -0.0077839261866836 0)
(1.000659029242 -0.0088472070172226 0)
(1.0008365086876 -0.0099180969460709 0)
(1.0010376998837 -0.010997620985324 0)
(1.0012647654382 -0.012087407501345 0)
(1.0015181076939 -0.013186747931491 0)
(1.0018010925537 -0.014298404611609 0)
(1.002113077739 -0.015420692394524 0)
(1.0024598604277 -0.016559740825033 0)
(1.0028382526763 -0.017710779586927 0)
(1.0032590718406 -0.018885701666621 0)
(1.0037129682076 -0.020070546055763 0)
(1.0042211576251 -0.021288896757218 0)
(1.004759862713 -0.022505910405687 0)
(1.0053725922772 -0.023773311838643 0)
(1.0060030080822 -0.025011079709435 0)
(1.0067436391644 -0.026337322182801 0)
(1.0074657162372 -0.027570830708139 0)
(1.00837056795 -0.028981620983071 0)
(1.0091685358658 -0.030158259926555 0)
(1.0103056265923 -0.031716074994664 0)
(1.0111341127549 -0.032719665754319 0)
(1.0126681516175 -0.034568909284828 0)
(1.0000003904782 -0.00050874391080656 0)
(1.0000125524467 -0.0015321613593534 0)
(1.0000377990798 -0.0025851248911566 0)
(1.0000784310567 -0.003661295648913 0)
(1.0001358994682 -0.0047500355998237 0)
(1.0002109825707 -0.0058432560043288 0)
(1.0003038607327 -0.0069374795716802 0)
(1.0004150968549 -0.008034376061234 0)
(1.0005452083902 -0.0091374047400275 0)
(1.0006956818627 -0.01025028006945 0)
(1.0008673639777 -0.011374397436654 0)
(1.0010626335937 -0.01251176536063 0)
(1.0012820434066 -0.013661892502425 0)
(1.0015292816854 -0.014828009670091 0)
(1.0018038583138 -0.016008651636143 0)
(1.0021120711437 -0.017210730232004 0)
(1.0024508331259 -0.018429594064481 0)
(1.0028317882506 -0.019678327329349 0)
(1.0032454759314 -0.020942488728314 0)
(1.0037145414083 -0.022247506848479 0)
(1.0042144669476 -0.023556660113221 0)
(1.0047914157521 -0.024925207585797 0)
(1.0053867245444 -0.026268383295261 0)
(1.0060982680089 -0.027712022701527 0)
(1.0067911548386 -0.02906375423865 0)
(1.0076782167744 -0.03061105474178 0)
(1.0084546805612 -0.031916327190906 0)
(1.0095927492652 -0.03363486655772 0)
(1.0104084915462 -0.034770038078667 0)
(1.0119799931311 -0.036814118645624 0)
(1.0000003289764 -0.0005177327189539 0)
(1.0000084733988 -0.0015600007720838 0)
(1.0000261320181 -0.0026357681729869 0)
(1.0000556652389 -0.0037377702208692 0)
(1.0000985767191 -0.0048541045849631 0)
(1.0001556961722 -0.0059758881188376 0)
(1.0002272462139 -0.0070994561076561 0)
(1.0003138500011 -0.0082268543258857 0)
(1.0004160924053 -0.0093621341658736 0)
(1.0005355731784 -0.010509596930909 0)
(1.0006732521033 -0.011671046866489 0)
(1.0008316906008 -0.012848891319976 0)
(1.0010115941727 -0.014042912617773 0)
(1.0012169232657 -0.015256820649208 0)
(1.0014473702457 -0.016489467943137 0)
(1.0017096491324 -0.017748536381925 0)
(1.0020008656615 -0.019029672293869 0)
(1.0023333310358 -0.020347060778389 0)
(1.0026976961546 -0.021686111348225 0)
(1.0031177150987 -0.023073804484992 0)
(1.0035686253731 -0.024472195509821 0)
(1.0040985695359 -0.025939322967824 0)
(1.0046476189849 -0.027387043763648 0)
(1.0053175627266 -0.028947142139626 0)
(1.0059696067296 -0.030418992705799 0)
(1.0068250570578 -0.032103508245415 0)
(1.007568626993 -0.033543131724502 0)
(1.0086923722852 -0.035424272717633 0)
(1.0094857495773 -0.036702254676426 0)
(1.0110777213386 -0.038942658642564 0)
(1.0000002600008 -0.00052280338030288 0)
(1.0000040229863 -0.0015761334635059 0)
(1.0000133782678 -0.0026670284657062 0)
(1.0000307254206 -0.0037872325625738 0)
(1.0000576027844 -0.0049235443854562 0)
(1.0000948794889 -0.006066270733173 0)
(1.0001428113899 -0.0072115635845282 0)
(1.0002020636562 -0.0083618542028984 0)
(1.0002732733292 -0.0095218073855972 0)
(1.0003581233274 -0.010696324149154 0)
(1.0004576719219 -0.011887650210108 0)
(1.0005746217065 -0.013098602600424 0)
(1.0007098272617 -0.014329292221082 0)
(1.00086746012 -0.015583908782995 0)
(1.0010474186878 -0.016861723969285 0)
(1.0012567325671 -0.018171159985571 0)
(1.0014927866893 -0.0195083558321 0)
(1.0017683766789 -0.020888473518747 0)
(1.0020744873735 -0.022297152389087 0)
(1.002435622217 -0.0237625586913 0)
(1.0028272857659 -0.025246300816396 0)
(1.0032988636182 -0.026808273647703 0)
(1.003790271331 -0.02835860573072 0)
(1.0044056732449 -0.030032856630964 0)
(1.0050047133964 -0.031625692954556 0)
(1.0058139419513 -0.033446527206101 0)
(1.0065124193214 -0.035025457094479 0)
(1.0076052897972 -0.037069096697969 0)
(1.0083655833369 -0.038501037782118 0)
(1.0099591653327 -0.040936529903041 0)
(1.0000001836009 -0.00052411052337844 0)
(0.99999926750058 -0.0015810021863612 0)
(0.99999972715525 -0.0026795833359866 0)
(1.0000039648847 -0.0038105756215276 0)
(1.0000135470277 -0.0049594325687734 0)
(1.0000293671301 -0.0061156384342773 0)
(1.0000517040435 -0.0072751647080573 0)
(1.0000812439964 -0.0084408310658728 0)
(1.0001186569386 -0.0096179280810071 0)
(1.0001656741882 -0.01081196008611 0)
(1.0002234319623 -0.012025639047187 0)
(1.0002947266007 -0.013262195495313 0)
(1.0003805508332 -0.014522117958823 0)
(1.0004852186699 -0.01581006951769 0)
(1.0006088486632 -0.017125837815524 0)
(1.000758674647 -0.018478545322742 0)
(1.0009324353156 -0.019865019466964 0)
(1.0011432124847 -0.021301257122011 0)
(1.0013825358549 -0.022773527567339 0)
(1.0016752769878 -0.0243107756558 0)
(1.0019977108216 -0.025875011553887 0)
(1.002399694908 -0.027526949873326 0)
(1.0028221051787 -0.029176842628058 0)
(1.003369881942 -0.030961542942761 0)
(1.0039034897655 -0.032675080736505 0)
(1.0046513958956 -0.034629654037871 0)
(1.0052919873227 -0.036351905954769 0)
(1.0063365200157 -0.038555849165648 0)
(1.0070520478429 -0.040152570232416 0)
(1.0086268252061 -0.042778996732959 0)
(1.00000010213 -0.00052185806118821 0)
(0.99999426973875 -0.0015752265602974 0)
(0.99998536316638 -0.0026744256249835 0)
(0.99997575991886 -0.0038091062395332 0)
(0.99996702578481 -0.0049633695858399 0)
(0.99996006957937 -0.0061258661135661 0)
(0.99995518250323 -0.0072923837359864 0)
(0.99995304957398 -0.0084661241832622 0)
(0.99995435217785 -0.0096530058000476 0)
(0.99996083331893 -0.010859131764517 0)
(0.99997368035225 -0.012087696452162 0)
(0.99999573237387 -0.01334234286185 0)
(1.000028100129 -0.014623975005848 0)
(1.0000751692914 -0.015937721513697 0)
(1.0001372778567 -0.017283966048861 0)
(1.0002217518 -0.018672496977 0)
(1.0003267342183 -0.020100998374912 0)
(1.0004653970377 -0.021586179462725 0)
(1.000629989792 -0.023115299646114 0)
(1.000845379577 -0.024717715789992 0)
(1.001089069758 -0.026356642642457 0)
(1.0014106322952 -0.028092622364433 0)
(1.0017529682889 -0.029837868398601 0)
(1.0022201978032 -0.031728001560921 0)
(1.0026759350942 -0.033560660315772 0)
(1.003347215751 -0.03564471966902 0)
(1.0039167411537 -0.037513113717013 0)
(1.004894873637 -0.039873049462973 0)
(1.0055532253281 -0.041644863979233 0)
(1.0070876219853 -0.044455021403618 0)
(1.0000000178383 -0.00051629667790675 0)
(0.99998910292508 -0.0015595432994639 0)
(0.99997048576027 -0.0026527477229707 0)
(0.99994649212426 -0.0037844526531962 0)
(0.99991867162932 -0.0049373878577305 0)
(0.99988793181031 -0.0060993662109699 0)
(0.99985456362549 -0.0072659909198903 0)
(0.99981922678893 -0.0084408314670318 0)
(0.99978258975221 -0.0096304232859718 0)
(0.99974636861145 -0.010841455140033 0)
(0.99971177143672 -0.012077614636099 0)
(0.99968163030615 -0.013342953313045 0)
(0.99965714440026 -0.014638813396335 0)
(0.99964270253289 -0.015970782141764 0)
(0.9996388396931 -0.017339889238399 0)
(0.99965287482205 -0.018756577380655 0)
(0.99968336352203 -0.020219490605599 0)
(0.99974340532119 -0.021746005684146 0)
(0.99982606407973 -0.023324593491466 0)
(0.99995590185883 -0.024984851597386 0)
(1.000111973539 -0.026691714434851 0)
(1.0003429405188 -0.02850496878468 0)
(1.0005946040858 -0.030340091096559 0)
(1.0009688542806 -0.032329640917477 0)
(1.0013345479376 -0.034278278639139 0)
(1.0019140581022 -0.036486261247526 0)
(1.0023991725569 -0.038501839583928 0)
(1.0032923765059 -0.041011425859066 0)
(1.0038806936709 -0.042967711150184 0)
(1.0053523067772 -0.045951201486548 0)
(0.99999992934763 -0.00050770545306505 0)
(0.99998382328323 -0.0015347796977807 0)
(0.99995527273653 -0.0026158899063491 0)
(0.99991652156547 -0.0037384451673489 0)
(0.99986908663475 -0.0048838042657957 0)
(0.99981386102699 -0.0060389347713194 0)
(0.99975112685979 -0.0071992491431525 0)
(0.999681496408 -0.0083686632838344 0)
(0.99960559873414 -0.0095543072535428 0)
(0.99952506971978 -0.010763424260493 0)
(0.9994411056416 -0.012000200765781 0)
(0.99935648411 -0.013269085083058 0)
(0.99927246728472 -0.014571876940401 0)
(0.99919337630094 -0.015914610559391 0)
(0.99911990744816 -0.017298990084269 0)
(0.99905928201597 -0.018736114743725 0)
(0.9990104319814 -0.020225614889736 0)
(0.99898626763285 -0.021785589147594 0)
(0.99898064586864 -0.023405719498329 0)
(0.99901766554176 -0.025116022667371 0)
(0.99907799372066 -0.026883064513131 0)
(0.99920908571431 -0.028766253908968 0)
(0.99936002079158 -0.030684158339043 0)
(0.99962968510022 -0.032766696414368 0)
(0.99989354740961 -0.03482583075357 0)
(1.0003669126265 -0.037152184611401 0)
(1.0007545599282 -0.039312706110312 0)
(1.0015439714614 -0.041964960322812 0)
(1.0020497247186 -0.044111379500862 0)
(1.0034326925271 -0.047253611323932 0)
(0.99999983474276 -0.00049638910106516 0)
(0.99997848131523 -0.0015018175490388 0)
(0.9999398760708 -0.0025652555267953 0)
(0.99988615738886 -0.0036729775870349 0)
(0.99981879994747 -0.0048050141239007 0)
(0.99973867410228 -0.0059474806074378 0)
(0.99964604032017 -0.0070955717901988 0)
(0.99954144003293 -0.0082535061472077 0)
(0.99942545336139 -0.0094290115556349 0)
(0.99929956667923 -0.01062986712948 0)
(0.9991649354787 -0.011860751822118 0)
(0.99902421092526 -0.013126449943964 0)
(0.99887872050005 -0.014429244492772 0)
(0.99873261057201 -0.01577556698227 0)
(0.99858675301964 -0.017167852815519 0)
(0.99844812285021 -0.018617805078063 0)
(0.9983160549791 -0.020126087812995 0)
(0.99820307269683 -0.021711548665434 0)
(0.9981038466779 -0.023364990808333 0)
(0.99804182041194 -0.025117227802469 0)
(0.99799923979308 -0.026935791595729 0)
(0.99802226079671 -0.028881193217209 0)
(0.99806307486567 -0.030872723312356 0)
(0.99821763538869 -0.033041958769784 0)
(0.9983680367228 -0.035201956640622 0)
(0.9987222971678 -0.03764350048813 0)
(0.99899998767307 -0.039939602217418 0)
(0.99966874311148 -0.04273338032021 0)
(1.000078996704 -0.045062842411527 0)
(1.0013485952123 -0.048351347359872 0)
(0.9999997319024 -0.00048273646922673 0)
(0.99997320046711 -0.0014617591573907 0)
(0.99992457048036 -0.0025024817820186 0)
(0.9998558172222 -0.0035900956167376 0)
(0.99976839251682 -0.0047034628049678 0)
(0.9996631989746 -0.0058278791924124 0)
(0.99954048059779 -0.0069582961147113 0)
(0.99940062365648 -0.008099022358061 0)
(0.99924410449543 -0.0092584043831931 0)
(0.99907222108407 -0.010444842953652 0)
(0.99888614532775 -0.011663564221705 0)
(0.99868829350429 -0.012919586742438 0)
(0.9984800929605 -0.014215716924333 0)
(0.99826530704044 -0.015558650766917 0)
(0.99804513565791 -0.016951687473906 0)
(0.99782595111118 -0.018406895701102 0)
(0.99760783113832 -0.01992624350526 0)
(0.99740226545666 -0.021529018342114 0)
(0.99720541345692 -0.02320752391422 0)
(0.99703897792211 -0.024993179940842 0)
(0.99688794189049 -0.026854415332149 0)
(0.99679554804185 -0.028853905630698 0)
(0.99671868623644 -0.030908862621256 0)
(0.99674836950193 -0.033159042006272 0)
(0.99677497666375 -0.035405833444113 0)
(0.99699747791882 -0.037964723490447 0)
(0.99715367074276 -0.040373839068364 0)
(0.99768757938226 -0.043331355066597 0)
(0.99799805257776 -0.045806137783718 0)
(0.99912488770919 -0.049271780620805 0)
(0.99999961995899 -0.00046731357767467 0)
(0.99996825411833 -0.0014163097488659 0)
(0.99990996263667 -0.0024301235882368 0)
(0.99982630778281 -0.0034929077965784 0)
(0.99971875660895 -0.0045825797999713 0)
(0.99958841723888 -0.0056837014283786 0)
(0.99943573735896 -0.0067911945724933 0)
(0.99926085378369 -0.0079088794070036 0)
(0.99906377994447 -0.009045848794369 0)
(0.99884554885919 -0.010211104017319 0)
(0.99860754595853 -0.011410496906998 0)
(0.99835192438542 -0.012649314862168 0)
(0.99808027751327 -0.013931035601394 0)
(0.99779573177185 -0.015262524236306 0)
(0.9975000814904 -0.016648211802875 0)
(0.99719853273584 -0.01810015601338 0)
(0.99689258207301 -0.019622239595529 0)
(0.99659137815123 -0.021233372560169 0)
(0.9962943529605 -0.022928803936119 0)
(0.9960185458206 -0.024738901319925 0)
(0.99575588547299 -0.026635683724418 0)
(0.99554032725263 -0.028681290245876 0)
(0.99534249639325 -0.030793831388524 0)
(0.9952354383753 -0.033120978096944 0)
(0.9951351126304 -0.035446120063853 0)
(0.99520694107531 -0.038133310784605 0)
(0.99523763462891 -0.040625463374077 0)
(0.99560889278275 -0.043815746395463 0)
(0.99583756388283 -0.046337370863765 0)
(0.99678713427345 -0.050221584669018 0)
(0.99999948240569 -0.00045112039807055 0)
(0.99996354878286 -0.0013686148552244 0)
(0.99989620623758 -0.0023542612154139 0)
(0.99979806467911 -0.0033910807369369 0)
(0.99967057612059 -0.0044556033159717 0)
(0.99951503846462 -0.0055313151335191 0)
(0.999332762155 -0.0066136391339334 0)
(0.99912363411829 -0.0077049630465475 0)
(0.99888652979762 -0.0088160014812241 0)
(0.9986223234111 -0.0099561165183332 0)
(0.99833256075919 -0.011131597496024 0)
(0.99801912421083 -0.012348095846976 0)
(0.99768378826658 -0.013609993088176 0)
(0.99732898850353 -0.014924437959075 0)
(0.99695720404974 -0.016297493978673 0)