/*--------------------------------*- C++ -*----------------------------------*\
| =========                 |                                                 |
| \\      /  F ield         | OpenFOAM: The Open Source CFD Toolbox           |
|  \\    /   O peration     | Version:  2112                                  |
|   \\  /    A nd           | Website:  www.openfoam.com                      |
|    \\/     M anipulation  |                                                 |
\*---------------------------------------------------------------------------*/
FoamFile
{
    version     2.0;
    format      ascii;
    arch        "LSB;label=32;scalar=64";
    class       volScalarField;
    location    "8";
    object      p;
}
// * * * * * * * * * * * * * * * * * * * * * * * * * * * * * * * * * * * * * //

dimensions      [0 2 -2 0 0 0 0];

internalField   nonuniform List<scalar> 
22000
(
0.01089304378622
0.010871123037152
0.010825877238001
0.01075613027977
0.010661397068065
0.010541747796479
0.010397491976594
0.010228963750323
0.010036443788435
0.0098201730818889
0.0095803916966094
0.0093173722206661
0.0090314288934404
0.0087229208613903
0.0083922365058377
0.0080398013148717
0.007666062595018
0.0072715196604217
0.0068566893700738
0.0064221619219198
0.0059685176938555
0.0054964451264944
0.0050065626657293
0.0044996708324663
0.0039763800039471
0.0034376560898053
0.0028840251977375
0.0023167378156494
0.0017360264143935
0.0011436531726103
0.011303585253875
0.011280355622061
0.011233371696649
0.011161576015279
0.011064450301215
0.010941993340717
0.010794460658862
0.010622158585814
0.010425356170197
0.010204288540862
0.0099591884587695
0.009690319127552
0.0093979834596741
0.0090825320175535
0.0087443458055005
0.0083838484395916
0.0080014823683646
0.0075977467839538
0.00717314663255
0.0067282709549074
0.0062636788080899
0.0057800671986372
0.0052780240862968
0.0047583864562886
0.0042217137838871
0.003669054038738
0.0031008106006048
0.0025183993747934
0.0019217036439581
0.0013128509376954
0.012058359186677
0.012034091203431
0.011985103543833
0.011910382652207
0.011809438871951
0.011682273118569
0.011529124446766
0.011350276899767
0.011145978724123
0.010916447618279
0.010661899374419
0.010382580360648
0.010078774342557
0.0097508142453727
0.0093990611429922
0.0090239239131351
0.0086258249316727
0.0082052548814453
0.0077626975994591
0.0072987469010013
0.0068139355829424
0.0063089898044133
0.0057844525512716
0.0052412387558219
0.0046798169761773
0.0041014102664262
0.0035062061945928
0.0028960120557002
0.0022700865172125
0.0016314129975162
0.013111677089883
0.013086222758325
0.013034841674093
0.012956480448112
0.012850634459748
0.012717305420834
0.012556728666177
0.01236917291608
0.012154862358391
0.011913987755923
0.011646736161688
0.011353325847502
0.0110340104048
0.010689094877558
0.010318908563874
0.0099238348714493
0.0095042628645365
0.0090606655851535
0.0085934909708552
0.0081033325902245
0.007590678445662
0.0070562898420356
0.00650063913027
0.0059247454617581
0.0053289379415633
0.0047146789272793
0.0040818270156403
0.0034327203067757
0.0027656698927155
0.0020848293432329
0.014424411092207
0.014397589389907
0.014343441702784
0.014260857994809
0.014149302300198
0.014008766839199
0.013839476777709
0.013641678628538
0.013415562694468
0.013161280120281
0.012878974285607
0.012568819418389
0.012231021793481
0.011865841283599
0.011473556443905
0.011054507212479
0.010609028756764
0.010137559897989
0.0096404907090488
0.009118402830654
0.0085717144479931
0.0080012204918393
0.0074072886871904
0.0067910601715477
0.0061526668467622
0.0054938690973121
0.0048140814659605
0.0041163252934483
0.0033976733314827
0.0026638195241462
0.015962382113748
0.015934090433745
0.015876965014336
0.015789833172099
0.015672120025343
0.01552379904854
0.015345073419743
0.015136153363362
0.014897179748428
0.014628247491354
0.014329438204169
0.014000862544632
0.013642658116492
0.013255017488357
0.012838144505944
0.012392312222222
0.011917775648353
0.011414916374815
0.010884037723502
0.01032568989696
0.0097401880780649
0.0091283505341404
0.0084903973574517
0.0078276029378766
0.0071398383755549
0.0064292160300589
0.0056945874479923
0.0049398069975842
0.0041604113050379
0.0033639808036658
0.017694825263238
0.017665050936513
0.017604917821024
0.017513186404715
0.017389235993547
0.017233011616956
0.01704468122679
0.01682440260056
0.016572249186861
0.016288240285005
0.015972374487349
0.015624675538788
0.015245186572385
0.01483400544593
0.014391231488529
0.013917040835193
0.013411575030908
0.012875127641916
0.012307878199383
0.011710317326758
0.011082614854085
0.010425593408944
0.0097392736355581
0.0090250637646251
0.0082824993313215
0.0075140891500178
0.0067179913894558
0.0058990275935842
0.0050508842504354
0.0041833390756893
0.019593210913639
0.019562030556592
0.019499038189931
0.019402925933935
0.019273021417153
0.019109231000092
0.018911672896372
0.018680434540396
0.018415501868309
0.018116796545781
0.017784209821964
0.017417651567927
0.017017040616675
0.016582348062465
0.016113533778471
0.015610641061085
0.015073658199264
0.014502752636575
0.013897935111194
0.013259599692632
0.012587719094026
0.011883090460075
0.011145471108169
0.010376393229214
0.0095749707405409
0.008744138300725
0.0078812174732586
0.0069921148590693
0.0060683402519599
0.0051221470636098
0.021630519881517
0.02159809447523
0.021532562693493
0.021432549021757
0.021297323879864
0.021126743838836
0.020920861695049
0.020679675583892
0.020403062785973
0.020090823962023
0.019742716937328
0.019358508416759
0.01893796028085
0.018480881254331
0.017987052584564
0.0174563436204
0.016888543617484
0.016283648782287
0.015641448146166
0.014962193262943
0.014245597768254
0.013492392766483
0.012701997344853
0.011876042574211
0.011013120715366
0.010116607155329
0.0091828322935676
0.0082188837727961
0.0072137594714371
0.0061824198064254
0.02378086497333
0.023747434702755
0.023679842921828
0.023576649215514
0.023437061939194
0.023260876671937
0.02304806508963
0.022798517255227
0.022511980865071
0.022188112039044
0.021826508509274
0.021426763419301
0.020988447485284
0.020511169184884
0.019994488980778
0.019438057259789
0.018841413713428
0.018204332335724
0.017526320627855
0.016807433267392
0.016047053635037
0.015245794347041
0.01440264874684
0.013519308485492
0.01259373235021
0.01162972982177
0.010622473362912
0.0095803003207049
0.0084893499034325
0.0073674580296833
0.026019360487723
0.025985235054418
0.025916204608967
0.025810767696431
0.025668066095292
0.025487823743664
0.025269916786401
0.025014110113762
0.024720002411091
0.024387082800401
0.024014763062997
0.023602432918454
0.023149437920807
0.022655148016491
0.022118859644976
0.021539957232382
0.02091767749409
0.02025151710132
0.01954063695028
0.018784833465619
0.017983080352187
0.01713580885371
0.016241489062123
0.015301817045037
0.014313992548721
0.013282231454916
0.012200370051002
0.011078026982415
0.0098981296506044
0.0086814766922224
0.028322160532272
0.028287708068265
0.028217979523522
0.028111416965615
0.027967091668431
0.027784646879935
0.027563851360772
0.027304330539055
0.027005517368017
0.026666714060981
0.02628712316228
0.025865903602937
0.025402144028289
0.024894939281365
0.024343279645958
0.023746236886315
0.023102690789765
0.022411803746002
0.021672322075066
0.020883717438293
0.020044468818192
0.019154753064182
0.01821240998041
0.017219069268447
0.016171036218968
0.01507287533452
0.013916898577154
0.012713989336248
0.011443514962586
0.010129212950902
0.030666605404265
0.030632237485427
0.030562642236047
0.030456209778472
0.030311938421265
0.030129384473352
0.029908200821661
0.029647862607054
0.029347623968211
0.029006584291768
0.028623717953674
0.02819793020269
0.027728025368426
0.027212790586528
0.026650871385367
0.026040982995312
0.025381596455201
0.02467148367518
0.02390890834175
0.023092948241971
0.022221499622066
0.021294404739428
0.020308762106535
0.019266048152963
0.018161535090159
0.017000051001531
0.01577220342578
0.014490018299093
0.01312898545283
0.011715523724752
0.033031424057634
0.032997579058937
0.032929005510298
0.032824047299783
0.032681631249668
0.032501224582282
0.032282358889513
0.032024351497898
0.03172626911004
0.031386997770549
0.031005270628712
0.030579722452355
0.030108852078795
0.029591112594264
0.029024772316166
0.028408151679959
0.027739266249795
0.027016444932411
0.026237403814994
0.025400757601091
0.024503732053202
0.023545747517899
0.022523047520683
0.021436851727429
0.020281273026579
0.019061274382817
0.017765721752161
0.016407458213513
0.014958560135766
0.0134450640422
0.035396950463248
0.035364079031165
0.035297435713507
0.035195332078592
0.035056630962909
0.034880711347207
0.034666980981027
0.034414595985901
0.034122432229455
0.033789158047969
0.033413259282038
0.032993090918433
0.032526832993771
0.032012586430276
0.031448218399871
0.030831624668688
0.030160326882367
0.029432165408743
0.028644250658587
0.027794668466527
0.02687989084478
0.025898823970247
0.024846745953316
0.023724478804401
0.022524868288609
0.021252676197178
0.019895271347386
0.018464866030427
0.01693414868331
0.015324952706397
0.037745292183853
0.037713841156284
0.037650030240501
0.037552156631592
0.037419029765736
0.037249943872082
0.037044183871856
0.036800746597756
0.036518320592142
0.036195359640706
0.035830103585715
0.035420626293603
0.034964784758261
0.034460319547264
0.033904683223452
0.033295327791046
0.032629253745883
0.031903777861739
0.031115357866235
0.030261492621621
0.029337828163269
0.028342664397992
0.027270222033069
0.026120766799064
0.024885837585556
0.023569643907372
0.022158213673747
0.020662929304296
0.019053960884264
0.01735484359734
0.040060479026997
0.04003087810618
0.039970769245436
0.039878455606824
0.039752706400489
0.039592737066146
0.039397714413588
0.039166483130916
0.03889755403157
0.038589176764942
0.038239355159315
0.037845890262377
0.037406321306091
0.036918030899371
0.036378055171032
0.035783395976358
0.0351305188111
0.034416195455452
0.033636198550449
0.03278739426725
0.031864544835202
0.030865259091332
0.029782616418007
0.028616182402293
0.027356079833327
0.026005828981569
0.024549735034551
0.022998753781732
0.021319260864235
0.019535492424613
0.042328564228596
0.042301213709187
0.042245619260917
0.042160112161041
0.042043437022274
0.041894739790871
0.041713077544857
0.041497154184712
0.041245317415359
0.040955629424501
0.040625875435147
0.040253601432046
0.039836045355734
0.039370246430143
0.038852834437635
0.03828036853199
0.037648779661748
0.03695428931273
0.036191969035942
0.035358024192999
0.034446293044873
0.033453626901294
0.032371885201418
0.031199817958944
0.029925958770823
0.028553053939892
0.027063243653015
0.025467226903006
0.023727016411246
0.021867201167286
0.044537666067278
0.044512928548242
0.044462584079195
0.044385015023056
0.044278959128218
0.044143505425619
0.043977614487086
0.043779866024357
0.043548463889766
0.043281304336597
0.042975976934712
0.042629797743183
0.042239728662046
0.04180249188986
0.041314334355484
0.040771395256587
0.040169086842627
0.039503093728028
0.038767787771538
0.037958706631371
0.037068743280989
0.036093951312503
0.035024912602112
0.033859483152204
0.032584428854076
0.03120164184841
0.029690539354664
0.028061525727033
0.026271443161975
0.024343491808568
0.046677944850735
0.046656142614299
0.046611699085404
0.046543067747801
0.046448996566446
0.046328533030222
0.046180558284636
0.046003548356557
0.045795587636683
0.045554434834352
0.045277514677595
0.044961946009726
0.044604447398675
0.044201458052496
0.043748875535193
0.043242454145572
0.042677118826443
0.042048048480859
0.041348938879966
0.04057467754109
0.039717215926338
0.038771793677485
0.037727689224328
0.036581816045467
0.035319102969179
0.033940496514247
0.032422461128786
0.030774510661311
0.028948070449024
0.026963560047992
0.048741518985154
0.048722934762628
0.048684957822922
0.048626127427838
0.04854522037701
0.048441260501857
0.048313066508351
0.048159029287496
0.047977138261912
0.047765045732304
0.047520049983622
0.047239114412147
0.046918759402449
0.046555185107752
0.046143989556619
0.045680585627491
0.04515946238049
0.044575327666529
0.043921252874316
0.043191497635803
0.042377127851143
0.041472556385458
0.0404658016146
0.039352749038347
0.038116542251834
0.036757149313293
0.03524813147905
0.033597843060261
0.031750731685377
0.029721069361274
0.05072234209836
0.050707195107756
0.050676145997235
0.050627830526721
0.050561078126815
0.050474908349433
0.050368089182998
0.050238939762034
0.050085381370688
0.049904992011634
0.049694982281263
0.049452197444838
0.049173005914432
0.048853409940724
0.048488775137422
0.048074220562895
0.04760389740517
0.047072074310848
0.04647132428737
0.04579525162381
0.04503420972876
0.044181668805843
0.04322464458463
0.042157709441667
0.040962480692765
0.039637501208495
0.038153926966079
0.03651984554097
0.034672277624776
0.032617653889049
0.0526161413775
0.052604461838259
0.052580557429576
0.052543211598163
0.052491339067184
0.052423945658654
0.052339737765125
0.052236966973076
0.052113518735066
0.051966941791507
0.051794410878132
0.051592692092653
0.051358050184067
0.051086310721934
0.050772661771523
0.05041192379408
0.049998016670236
0.049524737073782
0.048984401574719
0.048369815715341
0.047671070556996
0.04688020940357
0.045984149254809
0.044975010132878
0.043834614729602
0.04255723569585
0.041113955580943
0.039508445429567
0.037676377195588
0.035623984932239
0.0544206613772
0.054412105017763
0.054394961084352
0.05436844870962
0.054331626663136
0.054283409953935
0.05422235202429
0.054146628620025
0.054054118998003
0.053942393635482
0.053808633970337
0.053649566299086
0.053461422485355
0.053239916179246
0.052980151128845
0.052676657665818
0.052323190902216
0.051912929244182
0.051438054723901
0.050890225087575
0.050259761996603
0.049536399327531
0.048708359424855
0.047763071768889
0.046686617429273
0.045463033901706
0.044072517262842
0.042494000063362
0.040676137917983
0.038596873853319
0.056136352368413
0.056130666908047
0.056119474770811
0.056103191381991
0.056080972186922
0.056051846173879
0.056014037385137
0.055965606085537
0.055904466311594
0.055828218468636
0.055734050063342
0.055618684275473
0.055478367704774
0.055308792666503
0.055105149117101
0.054861900812466
0.05457289016837
0.054230794795478
0.053827759584885
0.053354041014988
0.052800319005055
0.052153486236599
0.051403803031612
0.05053261879433
0.049533419115569
0.048375780653004
0.04706300629074
0.045532419811072
0.043774641068263
0.041577073111443
0.00057647891370311
3.7013669021349e-05
-0.00051055341757095
-0.0010651380472912
-0.0016258731151984
-0.0021920129043256
-0.0027628629129033
-0.0033377441988106
-0.0039159606536961
-0.0044967834242459
-0.0050794604679393
-0.0056632318456496
-0.006247336220988
-0.0068310117710136
-0.0074134944531864
-0.0079940170804852
-0.0085718125240146
-0.0091461171018078
-0.0097161717102263
-0.010281222712215
-0.01084052013006
-0.011393312939347
-0.011938837177337
-0.012476299821578
-0.013004888240826
-0.013524227461181
-0.014033801443128
-0.01453293718248
-0.015020930700112
-0.01549713161171
-0.015960960381683
-0.016411890435334
-0.016849432756697
-0.017273123826226
-0.017682527809351
-0.018077230022043
-0.018456852198604
-0.018821034710268
-0.019169466644709
-0.019501841341133
-0.019817924701001
-0.020117452988176
-0.020400288719501
-0.020666183108323
-0.020915136552434
-0.021146855929487
-0.021361578617559
-0.021558862153387
-0.021739438207601
-0.021902656785645
0.00073256895735355
0.00018355751564921
-0.00037437833513076
-0.00093941967883592
-0.0015105268784132
-0.0020870264348548
-0.0026683751554019
-0.003254040447135
-0.0038434099923512
-0.0044357727225675
-0.0050303643144753
-0.0056264115206073
-0.0062231440293866
-0.0068197882813262
-0.0074155623943411
-0.0080096759561167
-0.0086013317470471
-0.0091897277131368
-0.0097740588131481
-0.010353519423475
-0.010927309581463
-0.011494648334194
-0.012054799845292
-0.012607113178213
-0.013151033043295
-0.013685509717717
-0.014209692919412
-0.014722923579099
-0.015224604940137
-0.01571414653187
-0.016190972208634
-0.016654524279099
-0.017104269746435
-0.017539699216378
-0.017960348180729
-0.018365779396146
-0.018755610134876
-0.019129465628281
-0.019487047965775
-0.019828034672867
-0.020152231139417
-0.020459340262472
-0.020749304769053
-0.02102179574436
-0.021276966836388
-0.021514328376054
-0.021734382937781
-0.021936166191167
-0.022120671060352
-0.022285480726951
0.0010244537583411
0.0004512069335219
-0.00013288340339917
-0.00072426646072108
-0.0013212751345286
-0.0019231968582035
-0.0025296923044355
-0.0031404631195037
-0.003755016738571
-0.0043726323739432
-0.0049924843876525
-0.0056137483895076
-0.0062356248607787
-0.0068573218011121
-0.007478039663398
-0.0080969678493687
-0.0087132873895437
-0.0093261746939809
-0.0099348062314902
-0.010538362100293
-0.011136030533599
-0.011727009802265
-0.01231049463356
-0.012885656153192
-0.013451609559629
-0.014007650463286
-0.014553076928257
-0.015087213913046
-0.01560940153715
-0.016118987696446
-0.016615353501516
-0.017097916067927
-0.017566137425053
-0.018019505934706
-0.018457566548607
-0.018879878856754
-0.019286080177199
-0.019675789981774
-0.020048752853742
-0.020404627585282
-0.020743300338067
-0.021064417724853
-0.021368074206012
-0.021653794607373
-0.021922018799198
-0.022171904993715
-0.022404473219303
-0.022617840352139
-0.02281360533259
-0.022986106196725
0.0014385948967013
0.00082762642742429
0.00020318102972363
-0.00042833550338113
-0.0010642665151224
-0.0017039047559862
-0.0023472868506842
-0.0029945002462275
-0.0036452417668012
-0.0042987819732911
-0.0049542161710162
-0.0056106664143733
-0.006267319203843
-0.0069233862635136
-0.0075780725631504
-0.008230567901491
-0.0088800492284595
-0.0095256861434442
-0.010166643032715
-0.010802080916514
-0.011431162401404
-0.012053045928269
-0.012666903036339
-0.013271927514773
-0.013867343275411
-0.014452408513047
-0.015026451072318
-0.01558874719851
-0.016138555860754
-0.01667520746588
-0.017198107944432
-0.017706683505011
-0.018200402760262
-0.01867875569436
-0.019141307011112
-0.019587616686863
-0.020017356272882
-0.020430135010756
-0.020825757879596
-0.02120384354635
-0.021564387653171
-0.021906934024603
-0.022231787148889
-0.022538233111011
-0.022827116457787
-0.023097040679693
-0.023349746637746
-0.023581910251505
-0.023795879882101
-0.023980912521773
0.0019674247178333
0.0013069087793597
0.00062945615378509
-5.4494710435914e-05
-0.00074094458954577
-0.0014292814240327
-0.0021201239422971
-0.002814104067638
-0.003511166523549
-0.0042105585402921
-0.0049112665320413
-0.005612347926649
-0.0063129831023214
-0.0070124020452525
-0.0077098270854437
-0.0084044573275468
-0.0090954729124102
-0.009782043160699
-0.010463329638039
-0.01113849300768
-0.011806694620213
-0.012467100341257
-0.013118901711648
-0.013761280022648
-0.014393443391179
-0.01501470326692
-0.015624359748312
-0.016221619898881
-0.016805758565512
-0.017376153630964
-0.017932228753624
-0.018473406742546
-0.01899917155704
-0.019509021011285
-0.020002550678002
-0.02047932049375
-0.020939050238398
-0.021381330779395
-0.021806049033815
-0.022212763309609
-0.022601617411547
-0.022972006288639
-0.023324513678614
-0.023658088308222
-0.023974103870299
-0.024270406698079
-0.024549676021306
-0.024806678434573
-0.025044733465122
-0.025246426811119
0.0026077941219236
0.0018868250961582
0.0011443740990771
0.0003962783698958
-0.00035169899378479
-0.0010991471448271
-0.0018475019182172
-0.0025981043208338
-0.0033511920839585
-0.0041059560973457
-0.0048612305990657
-0.0056159914688962
-0.0063694188020435
-0.0071207730875596
-0.0078693038356518
-0.0086142263525405
-0.0093547310059612
-0.010089995241372
-0.010819190370385
-0.011541486409053
-0.012256049556218
-0.012962057402466
-0.013658682790742
-0.014345083067656
-0.01502054283329
-0.015684429602037
-0.016335939440243
-0.01697428395517
-0.017598835368391
-0.018208996529495
-0.018804185966324
-0.019383835811122
-0.019947469798248
-0.020494602604276
-0.021024876856774
-0.021537856951314
-0.022033335856414
-0.022510882600597
-0.022970501878819
-0.023411673588164
-0.02383474457638
-0.024238915262864
-0.024625136201819
-0.02499192893824
-0.025341343703363
-0.025670288526972
-0.025982615045485
-0.026270759607038
-0.026539205910439
-0.026762356947371
0.0033586476624525
0.0025668320260526
0.0017476900015719
0.00092406038233661
0.00010394995905432
-0.00071258132089489
-0.0015280730240655
-0.0023447594324789
-0.0031632093376548
-0.0039825099638567
-0.0048012908646392
-0.0056184264604944
-0.0064331030133593
-0.007244625424415
-0.0080522802292775
-0.0088553040508533
-0.0096529005012542
-0.010444259411806
-0.011228567091628
-0.012005011381323
-0.012772780155201
-0.013531088516309
-0.014279103697058
-0.015015905610711
-0.015740819511394
-0.016453320001618
-0.01715261328332
-0.017837918402913
-0.018508651436798
-0.019164233063661
-0.019804120385633
-0.020427780678826
-0.021034792397958
-0.021624694502536
-0.022197203461967
-0.022751892614922
-0.023288660586952
-0.023807050007137
-0.024307231060692
-0.0247885833791
-0.025251726419209
-0.025695617464118
-0.026121680660033
-0.026527914080818
-0.026917203319877
-0.027285340607003
-0.027637565634201
-0.027963591195842
-0.028269142061582
-0.028518950976117
0.0042211147070557
0.0033484050362403
0.0024409688976251
0.0015305409518398
0.00062792266717781
-0.00026738382406767
-0.0011593741115139
-0.0020513822573998
-0.0029443355319933
-0.0038371521958475
-0.0047281937460141
-0.0056162119402317
-0.006500408157584
-0.0073801459627313
-0.0082547567546785
-0.0091235005721653
-0.0099855944556357
-0.010840242075908
-0.011686647626316
-0.012524014277024
-0.013351558610078
-0.014168502984853
-0.014974134034637
-0.015767926786911
-0.016548337436092
-0.017315145790559
-0.018067631322968
-0.018805305333282
-0.019527601237266
-0.020233912510629
-0.020923742644658
-0.021596599192118
-0.022252136482946
-0.022889927156899
-0.023509793714584
-0.024111324574517
-0.024694572442544
-0.025259047542136
-0.025805150075292
-0.026332133428836
-0.026840979990826
-0.027330349543859
-0.027802262223333
-0.028254102331068
-0.028689755302549
-0.029103748975071
-0.029502904962804
-0.029873912955466
-0.030223719466687
-0.030506143354099
0.0051980640061848
0.0042345950528639
0.0032271475167256
0.002218595732436
0.0012231642591554
0.00023951926297935
-0.00073821855585979
-0.0017147128844142
-0.0026912623165288
-0.003666529670371
-0.0046385341992206
-0.0056058816517431
-0.0065677982051483
-0.0075237212928638
-0.008473033815422
-0.0094150177053277
-0.010348899685857
-0.011273894705223
-0.012189222536541
-0.01309410603807
-0.013987774927866
-0.014869463705009
-0.015738437564381
-0.016593968791769
-0.017435935234195
-0.018262902250408
-0.019074362148432
-0.019869837834885
-0.020648842366223
-0.021410865546092
-0.022155512363791
-0.022882351584286
-0.023591150958364
-0.024281531843265
-0.024953472648019
-0.025606582771254
-0.026241134039065
-0.026856596442868
-0.027453688779711
-0.028031511946702
-0.02859152712513
-0.029132046391671
-0.029655828571211
-0.03015956995079
-0.030648312076174
-0.031115240557711
-0.031568873975172
-0.031992753220303
-0.032394788763806
-0.032716979583181
0.0062936633891291
0.0052296319010381
0.0041101908838656
0.0029920016549722
0.0018934181329806
0.00081189981986224
-0.0002608311073655
-0.0013310163207271
-0.0024003152772216
-0.0034670243342862
-0.0045287358448454
-0.0055838874006826
-0.00663174385409
-0.007671831804992
-0.0087035898329242
-0.009726318694556
-0.010739251066858
-0.011741614032536
-0.012732650276156
-0.013711613930928
-0.014677770990448
-0.015630401281889
-0.01656881854083
-0.017492364662596
-0.01840051296647
-0.019292492124353
-0.020167742372517
-0.021025755306994
-0.021866110526841
-0.022688371053762
-0.023492257746606
-0.024277410251278
-0.0250437528011
-0.025790966122613
-0.026519246120361
-0.027228225542123
-0.027918482550896
-0.028589437594353
-0.029242242810073
-0.029875822961019
-0.030492257085412
-0.031089477039298
-0.031671127977357
-0.032233207306895
-0.032782028103545
-0.033309488183909
-0.033825771516209
-0.034311441516573
-0.03477474052796
-0.035145513633006
0.0075130500187614
0.0063386259878015
0.0050948346895524
0.0038552278484158
0.0026430600383065
0.0014540956047796
0.00027704872624774
-0.00089616006292154
-0.0020675076573931
-0.0032347840236603
-0.0043950621801206
-0.0055465924729792
-0.0066886942039686
-0.0078209976948572
-0.0089429976528593
-0.010054004461435
-0.011153247579752
-0.012239960653346
-0.013313407075764
-0.014372871561948
-0.015417655497185
-0.016447078816032
-0.01746049722601
-0.018457297372319
-0.019436946244421
-0.020398831095506
-0.021342470968108
-0.022267416555762
-0.023173346316086
-0.024059903391412
-0.024926957493681
-0.025774232011491
-0.026601861556167
-0.027409594388792
-0.028197923480858
-0.028966509164872
-0.029716342555043
-0.030446796213571
-0.031159584923637
-0.031853463781317
-0.032531262394928
-0.033190566810207
-0.033836013519168
-0.034463013045888
-0.035079145622306
-0.035675335876563
-0.036263129663992
-0.036820793480295
-0.0373556963698
-0.03778614029781
0.0088619609924329
0.0075672455730669
0.0061863236703519
0.0048132346387157
0.0034769484572597
0.002170896743282
0.00088007550561088
-0.0004056877671285
-0.0016885959127836
-0.0029657609428202
-0.0042336390028597
-0.0054902806586778
-0.006735080168289
-0.0079677821802928
-0.009187930194058
-0.010394829151268
-0.011587690812172
-0.012765746171917
-0.013928275280202
-0.01507459154701
-0.016204031646502
-0.017315956062667
-0.018409768037416
-0.019484907026402
-0.020540889972088
-0.021577203040016
-0.02259346611384
-0.023589314127839
-0.024564557442121
-0.025518935429841
-0.0264525095223
-0.0273650996914
-0.028257114784584
-0.029128384097179
-0.029979787572387
-0.030811032487852
-0.03162363194212
-0.032416962207115
-0.033193401875394
-0.033951658458217
-0.034695354063958
-0.03542197091909
-0.036137043143569
-0.036835828540497
-0.03752683671268
-0.038200808617337
-0.038869837121647
-0.039511346518272
-0.040129795948327
-0.040633944747403
0.010346369069364
0.0089214072913918
0.0073901579506913
0.0058712717139383
0.0044002594400975
0.0029674046543335
0.001553177852641
0.00014508217653541
-0.0012591569869636
-0.0026557682548433
-0.0040404954124471
-0.0054111880278161
-0.006767336856813
-0.0081088050551539
-0.0094351687357088
-0.010745703424066
-0.012039583977787
-0.013316026294334
-0.0145743190426
-0.015813799273112
-0.017033835688099
-0.018233827178992
-0.019413226442232
-0.020571530421576
-0.021708326404325
-0.022823193798628
-0.02391586790404
-0.024986083251706
-0.026033814373748
-0.027058915643197
-0.02806168647374
-0.029042064300773
-0.030000797288824
-0.030937826266718
-0.031854491342873
-0.03275061806797
-0.033628297775707
-0.034487081866878
-0.035329983954355
-0.036156052592824
-0.036969472449645
-0.037768366381838
-0.038558577613659
-0.039336431157107
-0.040110257977537
-0.04087245310428
-0.041633773693209
-0.042373550161261
-0.043089872709527
-0.04368578482896
0.011971873883733
0.010406760128536
0.0087117632819328
0.0070346664420265
0.0054183348169808
0.0038489129395149
0.0023014593618053
0.00076097547172774
-0.0007746499870775
-0.0023005240716198
-0.0038115916935685
-0.0053055155308748
-0.0067819075315352
-0.0082407421451489
-0.009681597086069
-0.011103685311435
-0.012506119005656
-0.013888081792709
-0.01524885949803
-0.016587802702009
-0.017904303734494
-0.019197793696178
-0.020467772609137
-0.021713795416111
-0.022935529056434
-0.024132648148218
-0.025305019442362
-0.026452493776712
-0.027575239659574
-0.028673250799362
-0.029747106420495
-0.030796905326008
-0.031823777490373
-0.032827861812756
-0.033810973002471
-0.034773237121222
-0.035717239065733
-0.036643099507367
-0.037554166627772
-0.038450628257983
-0.039336499939399
-0.040212071593905
-0.041082009054663
-0.041946341621957
-0.042810657363471
-0.043672989902633
-0.044538850914568
-0.045394922095901
-0.046227056825705
-0.04693904450713
0.013744354186973
0.012028295320126
0.010156050286228
0.0083085386085688
0.006536484282396
0.0048207443667356
0.0031300637312824
0.0014468589555122
-0.00023048773001237
-0.0018956965071715
-0.0035428481134434
-0.0051694512581593
-0.0067752576608657
-0.0083603280664462
-0.0099241951029218
-0.011465964868297
-0.012984656299457
-0.0144793993601
-0.015949458240153
-0.01739417972393
-0.018812964752101
-0.02020526437277
-0.021570618848061
-0.022908637047077
-0.024219068405582
-0.025501684506802
-0.026756494720692
-0.0279834848038
-0.029183041135306
-0.030355338429547
-0.03150125856043
-0.032621146789656
-0.033716512679941
-0.034787879265712
-0.03583742663974
-0.036865977185659
-0.037876282584313
-0.038869785278489
-0.039849475525363
-0.040817988971549
-0.041777887170891
-0.042733891886412
-0.043687073920267
-0.044645201318848
-0.045606693490007
-0.046581976524103
-0.047564215817181
-0.048557638998803
-0.049525865272315
-0.050385874076082
0.015669641168328
0.013791768499133
0.011727821016013
0.0096977493810312
0.007759920341761
0.0058882028942464
0.0040441116999326
0.0022075646843523
0.00037789128428625
-0.0014369601825234
-0.0032301805387037
-0.0049991854606349
-0.0067438797672881
-0.0084643589366031
-0.010160038576522
-0.011829862286761
-0.013472719801781
-0.015087661404321
-0.016673906003536
-0.018230770457253
-0.019757639062069
-0.021253961652736
-0.022719303779404
-0.02415331949592
-0.025555836930961
-0.02692672567219
-0.028266139711913
-0.029574220890912
-0.030851582591547
-0.032098639026588
-0.033316574999428
-0.034506121890197
-0.035669101165882
-0.036806729308404
-0.037921300223884
-0.039014992181394
-0.040090077010129
-0.041150574832326
-0.04219789426396
-0.04323911808999
-0.044273536562214
-0.045313177041498
-0.046352803485595
-0.047412470970705
-0.048478295741432
-0.049581235812407
-0.050692069235273
-0.051846980044366
-0.052971349864127
-0.054022301527005
0.017749928667339
0.015701028333739
0.01343111402889
0.01120652156932
0.0090933497652564
0.0070562485284935
0.0050484794773379
0.0030477537250331
0.0010549445920452
-0.00092004684216478
-0.0028695410191816
-0.0047909384832506
-0.0066842916367753