/*--------------------------------*- C++ -*----------------------------------*\
| =========                 |                                                 |
| \\      /  F ield         | OpenFOAM: The Open Source CFD Toolbox           |
|  \\    /   O peration     | Version:  2112                                  |
|   \\  /    A nd           | Website:  www.openfoam.com                      |
|    \\/     M anipulation  |                                                 |
\*---------------------------------------------------------------------------*/
FoamFile
{
    version     2.0;
    format      ascii;
    arch        "LSB;label=32;scalar=64";
    class       surfaceScalarField;
    location    "8";
    object      phi;
}
// * * * * * * * * * * * * * * * * * * * * * * * * * * * * * * * * * * * * * //

dimensions      [0 3 -1 0 0 0 0];

oriented        oriented;

internalField   nonuniform List<scalar> 
43645
(
0.39512374052614
-4.8675090659826e-06
0.39513815653606
-1.4416065982764e-05
0.39516204887079
-2.3892395369553e-05
0.39519535122769
-3.3302419570032e-05
0.39523801494338
-4.2663778650631e-05
0.39528998712797
-5.1972247001145e-05
0.39535119389969
-6.1206832991072e-05
0.39542154096023
-7.0347120578478e-05
0.39550091686672
-7.9375965056303e-05
0.39558920390382
-8.8287094295694e-05
0.39568627703635
-9.7073188183185e-05
0.3957920176059
-0.00010574062384335
0.3959062966637
-0.00011427911054138
0.39602898682318
-0.00012269021089563
0.39615991183054
-0.00013092505727824
0.39629888503911
-0.0001389732572342
0.3964456369655
-0.00014675197363475
0.39659995263848
-0.0001543157190997
0.39676154119537
-0.00016158860171719
0.39693032686639
-0.00016878571487537
0.39710610261911
-0.00017577579542617
0.39728908682417
-0.00018298424696836
0.39747909069577
-0.00019000391249539
0.39767669300947
-0.00019760235396963
0.397881437383
-0.00020474441293563
0.39809442484767
-0.0002129875035824
0.39831447327347
-0.00022004846396076
0.39854377338317
-0.00022930014698569
0.39877960506827
-0.00023583172100725
-0.00024692776060054
0.39902653279277
0.3729471321893
-9.4450392858008e-06
0.37296080049299
-2.8084458167441e-05
0.37298360695379
-4.669894625385e-05
0.37301549316308
-6.5188718892544e-05
0.37305640527063
-8.3575975084357e-05
0.37310628653063
-0.00010185359439605
0.37316506426558
-0.00011998465348243
0.37323264922747
-0.00013793216623946
0.37330893687685
-0.00015566369620167
0.3733938166818
-0.00017316697917696
0.37348717051666
-0.00019042710089723
0.37358888564521
-0.0002074558284322
0.37369883825715
-0.00022423179643558
0.37381690411773
-0.00024075614366212
0.37394290889504
-0.00025692990476775
0.37407666410772
-0.00027272853846467
0.37421789746043
-0.0002879853930304
0.37436638549252
-0.00030280381645296
0.37452183103848
-0.00031703421125255
0.37468414378655
-0.00033109852532347
0.37485311165511
-0.00034474372488774
0.37502893243217
-0.00035880508395316
0.37521141940892
-0.00037249094788774
0.37540111973262
-0.00038730273554356
0.37559759477452
-0.00040121951158773
0.37580189228278
-0.00041728506800019
0.37601288338553
-0.00043103962187778
0.37623266758193
-0.00044908439735249
0.37645865753661
-0.00046182172704912
-0.00048354878347895
0.37669527850722
0.35201544424391
-1.3991847039655e-05
0.35202898573414
-4.1626042403527e-05
0.35205150485239
-6.9218158717826e-05
0.35208294457755
-9.6628537272627e-05
0.35212324397039
-0.00012387545928659
0.35217233572775
-0.00015094544119972
0.35223014051057
-0.00017778952347673
0.35229656873395
-0.00020436047473389
0.3523715203786
-0.00023061542360632
0.35245489219003
-0.00025653887127766
0.35254657377641
-0.00028210876552941
0.35264645965684
-0.00030734178506413
0.35275443143432
-0.00033220364769423
0.35287036883495
-0.0003566936161215
0.35299409860795
-0.00038065974730075
0.35312543156729
-0.00040406156558402
0.35326409033402
-0.0004266442254208
0.35340984444521
-0.00044855799182539
0.35356238375532
-0.00046957358368628
0.353721604932
-0.00049031976314969
0.35388727544136
-0.00051041429378909
0.35405957777367
-0.00053110747493056
0.35423829778293
-0.00055121101447557
0.35442397085188
-0.00057297586121122
0.35461611823188
-0.00059336694718248
0.35481578825618
-0.00061695514752374
0.35502177748685
-0.00063702890684225
0.35523621892413
-0.00066352588801243
0.3554563586927
-0.00068196154639036
-0.00071392141565763
0.35568673127263
0.332258562735
-1.851069939942e-05
0.3322720584562
-5.5121845868902e-05
0.3322945109139
-9.1670699091864e-05
0.33232585249251
-0.00012797019785286
0.33236600373209
-0.00016402677927287
0.33241488102941
-0.00019982281729226
0.33247239632436
-0.00023530489519478
0.33253845916802
-0.00027042339336626
0.332612974071
-0.00030513039939285
0.33269584552303
-0.00033941039427155
0.33278697145655
-0.000373234767767
0.33288625423846
-0.00040662463385279
0.33299358072035
-0.0004395301942427
0.33310883377633
-0.00047194673502087
0.33323183898881
-0.00050366502057656
0.33336240373512
-0.00053462637117153
0.33350024132135
-0.0005644818689894
0.33364511067556
-0.00059342740212851
0.33379668350525
-0.00062114646776554
0.33395484071779
-0.00064847702911775
0.33411932370761
-0.00067489733560804
0.33429029916572
-0.00070208298434818
0.33446751790992
-0.0007284298087789
0.33465150732555
-0.00075696532652408
0.33484173550949
-0.00078359517979641
0.33503926681532
-0.00081448650181573
0.33524279947715
-0.00084056161630263
0.33545455041284
-0.00087527687059197
0.33567155588203
-0.00089896706016027
-0.00094098329599008
0.33589861771621
0.31361057068339
-2.302407301087e-05
0.31362409518063
-6.8646417642023e-05
0.31364661347375
-0.0001141890669104
0.31367805076433
-0.00015940756232474
0.31371830720241
-0.00020428328962702
0.31376727993802
-0.00024879562353781
0.31382487089021
-0.00029289591596659
0.31389098952509
-0.00033654209503742
0.31396554711534
-0.00037968805423366
0.3140484590138
-0.00042232235546832
0.31413963508489
-0.00046441089931989
0.31423898953994
-0.00050597914755917
0.31434641856244
-0.00054695927316406
0.31446181204245
-0.00058734026978632
0.31458499730052
-0.00062685033130946
0.31471577982667
-0.00066540894855822
0.31485386329848
-0.00070256539017709
0.31499899439529
-0.00073855854720471
0.31515082385645
-0.00077297597561021
0.31530921439591
-0.00080686761448657
0.31547387861956
-0.00083956160389548
0.31564496700381
-0.00087317141277415
0.31582219290372
-0.00090565575187662
0.3160060782455
-0.00094085071134283
0.31619603162109
-0.00097354859768575
0.31639314095568
-0.0010115958788188
0.31659598662915
-0.0010434073316626
0.31680689085344
-0.0010861811364309
0.31702262370019
-0.0011146999466674
-0.0011666776516708
0.31724831801414
0.29600921600242
-2.7538281013814e-05
0.29602279252742
-8.2223012154468e-05
0.29604541677622
-0.00013681338527835
0.29607700794748
-0.00019099880236159
0.296117445872
-0.00024472128138528
0.2961666084483
-0.00029795826558856
0.29622438852303
-0.0003506760545283
0.29629069773227
-0.00040285136645271
0.29636545750284
-0.00045444788490935
0.29644859820832
-0.00050546311933853
0.29654004627039
-0.00055585901761145
0.29663973253739
-0.00060566546910236
0.29674756738796
-0.0006547941761238
0.29686345230136
-0.00070322523400859
0.29698722067103
-0.00075061874977926
0.29711867959873
-0.00079686792372683
0.29725752630753
-0.00084141214463094
0.29740349724664
-0.00088452953093023
0.29755622444629
-0.00092570321832867
0.29771555350228
-0.00096619671281873
0.29788117032851
-0.0010051784712134
0.29805320993981
-0.0010452110647556
0.29823134974693
-0.0010837955987002
0.29841610673836
-0.0011256077423704
0.29860682799396
-0.001164269892159
0.29880462707789
-0.0012093950017584
0.29900795413004
-0.0012467344223069
0.29921924845902
-0.00129747550363
0.29943497575618
-0.0013304272803774
-0.0013923400789418
0.29966063814477
0.27939574000776
-3.2043828700348e-05
0.27940934400114
-9.5827068961742e-05
0.27943203522479
-0.00015950467225968
0.2794637277631
-0.00022269140319285
0.27950428164204
-0.000285275221352
0.27955355641761
-0.00034723310075892
0.27961143765374
-0.00040855734839528
0.27967784192825
-0.0004692556971505
0.27975270456555
-0.00052931057635976
0.27983597547759
-0.00058873408392045
0.27992760288916
-0.00064748647961061
0.28002753992827
-0.00070560255705269
0.28013571732458
-0.00076297161918629
0.28025205426229
-0.00081956221702273
0.28037639673156
-0.00087496126240239
0.28050855932938
-0.00092903056367234
0.28064823922178
-0.00098109207742869
0.28079516763532
-0.0010314579839342
0.28094896398053
-0.001079499601558
0.28110946047216
-0.0011266932418659
0.28127632212019
-0.0011720401555251
0.28144967056656
-0.001218559547144
0.28162915224461
-0.0012632773119075
0.28181527957108
-0.0013117351040724
0.28200734066074
-0.0013563310164491
0.28220647485528
-0.00140852923127
0.28241099761762
-0.0014512572192316
0.28262347252793
-0.0015099504484604
0.28284003818628
-0.0015469929718631
-0.0016189041999356
0.28306660227178
0.26371468485115
-3.6519285464979e-05
0.26372825426265
-0.00010939653929039
0.26375091085731
-0.00018216132561779
0.26378256480232
-0.00025434540620103
0.26382305734393
-0.00032576781959994
0.26387223116843
-0.00039640698066814
0.26392996685541
-0.00046629308909477
0.26399618908587
-0.0005354779799759
0.26407085115571
-0.00060397269669895
0.26415392730786
-0.0006718102851456
0.26424539317197
-0.00073895239082299
0.26434523019132
-0.00080543962209137
0.26445339624457
-0.00087113771615705
0.26456983508319
-0.00093600109803271
0.26469441305294
-0.00099953927269264
0.26482695953167
-0.0010615770818144
0.26496718018196
-0.0011213127654565
0.26511480812985
-0.0011790859687059
0.26526945919806
-0.0012341507052108
0.26543095824781
-0.001288192326486
0.2655989583943
-0.001340040335727
0.26577357188625
-0.0013931730725489
0.2659544226757
-0.001444128133901
0.26614202011565
-0.0014993325765911
0.26633560014006
-0.0015499110727466
0.26653632844128
-0.0016092575646391
0.26674238758794
-0.0016573163975484
0.26695647006381
-0.0017240329558441
0.26717437384853
-0.0017648967867305
-0.0018469656811356
0.26740243529729
0.24891370790224
-4.0934548347046e-05
0.24892715289631
-0.00012284158692646
0.24894962676369
-0.00020463524640228
0.24898103707929
-0.00028575577459228
0.24902120788875
-0.0003659386805834
0.24906996703518
-0.00044516617755738
0.24912719271735
-0.00052351882017171
0.24919282088576
-0.00060110619608538
0.24926682669697
-0.0006779785538957
0.24934921319335
-0.00075419682624952
0.24943998872645
-0.00082972796681306
0.24953916883939
-0.00090461977666367
0.24964674534197
-0.00097871425854664
0.24976269354187
-0.0010519493365626
0.24988690850591
-0.0011237542736145
0.25001924251484
-0.0011939111266426
0.25015941981334
-0.001261490098277
0.25030718419604
-0.0013268503849783
0.25046215931595
-0.0013891258573343
0.25062417079002
-0.0014502038323083
0.25079287172739
-0.0015087413037376
0.25096837095023
-0.0015686723258421
0.25115028156793
-0.0016260387811909
0.25133911318128
-0.0016881642196041
0.25153406048317
-0.0017448584036554
0.2517363167086
-0.0018115138193587
0.25194393915078
-0.0018649388685181
0.25215975151314
-0.0019398453468905
0.2523792082139
-0.0019843535149167
-0.0020768447390547
0.25260908724211
0.23494340687795
-4.5253913072063e-05
0.23495661877754
-0.00013605353602764
0.23497873048658
-0.00022674700481524
0.2350096483892
-0.00031667372608209
0.23504918125124
-0.00040547159039763
0.23509714433818
-0.00049312931138702
0.23515341602196
-0.00057979054947312
0.23521794632537
-0.00066563654402605
0.23529073559153
-0.00075076786305398
0.23537181942468
-0.00083528070131472
0.23546124351489
-0.00091915209730182
0.23555906258729
-0.001002438888259
0.23566530864131
-0.0010849603500835
0.2357799951213
-0.0011666358530489
0.23590305413298
-0.0012468133201636
0.23603436916785
-0.0013252261955112
0.23617369388573
-0.0014008148486593
0.23632079249555
-0.0014739490266319
0.23647530945516
-0.0015436428474581
0.23663708083688
-0.0016119752440857
0.23680577373785
-0.0016774342336682
0.23698150145055
-0.0017444000672846
0.23716388060438
-0.0018084179628484
0.2373534261855
-0.0018777098285744
0.23754930610873
-0.0019407383539779
0.23775274386451
-0.0020149516024038
0.23796168523113
-0.0020738802617527
0.23817908602895
-0.0021572461711082
0.23840006615066
-0.0022053336617235
-0.0023086267464017
0.23863184813077
0.22175715468853
-4.9438854467453e-05
0.22177001453017
-0.00014891342310101
0.22179156775423
-0.00024830027420589
0.22182172069166
-0.00034682670844906
0.22186026887287
-0.00044401981557235
0.22190701731578
-0.00053987779752948
0.22196184688707
-0.00063462016280468
0.22202472390731
-0.00072851360547481
0.2220956763954
-0.00082172039099575
0.22217477524675
-0.00091437959162159
0.22226210700146
-0.0010064838894856
0.22235776948352
-0.0010981014068824
0.22246184005139
-0.0011890309529913
0.22257437586146
-0.0012791716972973
0.2226953536411
-0.0013677911324998
0.22282469591898
-0.0014545685053305
0.22296219653675
-0.0015383154969892
0.22310765013592
-0.0016194026557756
0.22326073563569
-0.0016967283759666
0.22342131025029
-0.0017725498870436
0.22358907040912
-0.0018451944197758
0.22376414325893
-0.0019194729442057
0.22394616533351
-0.0019904400636256
0.22413566418477
-0.0020672087060428
0.22433179916959
-0.0021368733642319
0.22453582800947
-0.0022189804678341
0.22474560567942
-0.0022836579565556
0.22496421908049
-0.0023758595967688
0.22518647737322
-0.0024275919777391
-0.0025421877772458
0.22542003837871
0.20931094374566
-5.3450689874144e-05
0.20932332987484
-0.0001612995944833
0.20934412434291
-0.00026909478444176
0.20937323410355
-0.00037593651095979
0.20941044343135
-0.00048122918442126
0.20945554932837
-0.00058498373502388
0.20950843709164
-0.00068750796551565
0.20956909078276
-0.00078916733538354
0.20963756748159
-0.00089019712741617
0.20971397477331
-0.00099078692019862
0.20979844209998
-0.0010909512517066
0.20989111276457
-0.0011907721062668
0.20999211313433
-0.0012900313561859
0.21010154819704
-0.0013886067927058
0.21021944557088
-0.0014856885376911
0.2103457735907
-0.0015808965558522
0.21048037622543
-0.0016729181611319
0.21062308812526
-0.0017621145845056
0.21077363612699
-0.0018472764054118
0.21093190954341
-0.0019308233308118
0.21109764993655
-0.0020109348392094
0.21127100867523
-0.0020928317089809
0.21145166018967
-0.0021710916032273
0.21164015295504
-0.0022557014965138
0.21183565953229
-0.0023323799657608
0.21203947645178
-0.0024227974116222
0.21224939761724
-0.0024935791455167
0.21246863362614
-0.0025950956288133
0.21269172919492
-0.0026506875683226
-0.0027772086685518
0.21292675006249
0.19756323877946
-5.7252976280663e-05
0.19757503433028
-0.00017309518466145
0.19759487794758
-0.00028893844111657
0.19762267689434
-0.00040373549690129
0.19765820610756
-0.00051675843611908
0.19770125672883
-0.00062803439432152
0.19775171992547
-0.00073797119928638
0.1978095980335
-0.00084704548002343
0.19787497736112
-0.00095557649058378
0.19794800212894
-0.0010638117229943
0.19802884508382
-0.0011717942403831
0.19811769563827
-0.0012796226939056
0.19821473099972
-0.0013870667496041
0.19832010632754
-0.0014939821518978
0.19843390464076
-0.0015994868810534
0.19855614528263
-0.0017031372273303
0.19868673077823
-0.0018035036851475
0.19882554423887
-0.0019009280731072
0.19897237280589
-0.0019941049992794
0.19912714827041
-0.0020855988218352
0.19928967272379
-0.0021734593180665
0.1994601320519
-0.0022632910623583
0.1996382572516
-0.0023492168272762
0.19982462617077
-0.0024420704399275
0.2000184504838
-0.0025262043021897
0.20022106713705
-0.0026254140882144
0.20043025571191
-0.0027027677428864
0.20064932408211
-0.0028141640211009
0.20087265144805
-0.0028740149550098
-0.0030131756176745
0.20110861837455
0.18647483759479
-6.0813235858575e-05
0.18648593784056
-0.00018419546763905
0.18650465649021
-0.00030765712805326
0.18653090101357
-0.00042998005744069
0.18656443888904
-0.00055029634816861
0.18660505720255
-0.00066865274405214
0.18665265381419
-0.00078556784636232
0.18670724898693
-0.00090164068776644
0.18676895726305
-0.0010172848007692
0.18683795800288
-0.0011328124964043
0.18691446600018
-0.0012483022702261
0.1869987156203
-0.0013638723460562
0.18709093476336
-0.0014792859236111
0.1871913291163
-0.0015943765352905
0.18730003949993
-0.0017081972940283
0.18741713951255
-0.0018202372688418
0.18754259660035
-0.0019289608007381
0.18767634905892
-0.0020346805590578
0.18781825492181
-0.0021360108884821
0.18796829750268
-0.0022356414286827
0.18812635364217
-0.0023315154825132
0.18829265303093
-0.0024295904758174
0.18846700221676
-0.0025235660368707
0.18865001440314
-0.002625082649902
0.18884097030448
-0.0027171602262357
0.18904123484331
-0.0028256786496099
0.18924864859583
-0.002910181517106
0.18946647008205
-0.0030319855285331
0.18968951038642
-0.0030970552792641
-0.0032492884426709
0.18992562318972
0.17600873931053
-6.410381950797e-05
0.17601905695121
-0.00019451314388229
0.1760365019714
-0.00032510218395035
0.17606098256779
-0.00045446068948535
0.17609226066413
-0.00058157447962312
0.1761301208746
-0.00070651298932129
0.17617446805704
-0.00082991506285751
0.17622533924982
-0.00095251191421578
0.17628287512236
-0.0010748207061006
0.17634728734312
-0.0011972247495151
0.17641882988029
-0.001319844838787
0.17649777909976
-0.0014428215964945
0.17658441143177
-0.0015659182855997
0.17667898142029
-0.0016889465533825
0.17678168777327
-0.0018109036755772
0.17689265939563
-0.0019312089193842
0.17701193253847
-0.0020482339707596
0.17713950523106
-0.0021622532784537
0.17727531459428
-0.0022718202774826
0.17741940253468
-0.0023797293945167
0.17757173317214
-0.0024838461443949
0.17773258753105
-0.0025904448588248
0.17790186702449
-0.0026928455534535
0.17808022437409
-0.0028034400223915
0.1782670477584
-0.0029039836325146
0.17846370552605
-0.0030223364390071
0.17866823547637
-0.0031147114882896
0.17888359655509
-0.0032473466275901
0.17910545242288
-0.0033189111661128
-0.0034846067873976
0.17934077074675
0.1661300216068
-6.710347826389e-05
0.16613948785526
-0.00020397942677152
0.16615554024635
-0.00034115460965364
0.16617808816267
-0.00047700864034941
0.16620688985021
-0.00061037620116243
0.16624172878154
-0.00074135195430835
0.16628251653894
-0.00087070285313066
0.16632930493539
-0.00099930034309234
0.16638225754609
-0.0011277733483337
0.16644161437138
-0.001256581605855
0.16650766426535
-0.0013858947628888
0.16658072112521
-0.0015158784860543
0.16666110580667
-0.0016463029958581
0.16674911810204
-0.0017769588771954
0.16684501232679
-0.0019067979278681
0.16694897156173
-0.0020351681815159
0.16706110195649
-0.0021603643918057
0.16718146342511
-0.0022826147729821
0.16731007734832
-0.0024004342256394
0.16744704881568
-0.0025167008864133
0.16759243904934
-0.0026292364015904
0.1677465854562
-0.0027445912887968
0.16790950184538
-0.0028557619647366
0.16808188225747
-0.0029758204562077
0.16826325764025
-0.0030853590360674
0.16845498550352
-0.003214064322711
0.16865538203806
-0.0033151080423709
0.16886711166617
-0.0034590762746968
0.16908643448915
-0.0035382340069414
-0.003718173239943
0.16932000092206
0.15680572283464
-6.9797654090561e-05
0.15681428855128
-0.00021254517714438
0.15682886161559
-0.00035572770780526
0.15684935282166
-0.00049749988007652
0.15687551845243
-0.00063654186490478
0.15690714194566
-0.00077297547999405
0.15694414087017
-0.00090770180915476
0.1569865792474
-0.0010417387511812
0.15703463951792
-0.0011758336486741
0.15708858501744
-0.0013105271345693
0.15714873383109
-0.0014460436047465
0.1572154317367
-0.0015825764193836
0.15728903826535
-0.0017199095513489
0.15736989331666
-0.0018578139549944
0.1574583021125
-0.0019952067493848
0.15755449886667
-0.0021313649610405
0.15765865760534
-0.0022645231549962
0.15777090014477
-0.0023948573365672
0.15789133347555
-0.0025208675796499
0.15802012815812
-0.0026454955917415
0.15815744835639
-0.0027665566215973
0.1583036906353
-0.0028908335888891
0.15845899544944
-0.0030110667989881
0.15862409856068
-0.0031409235870258
0.15879870136733
-0.0032599618612705
0.15898414739836
-0.0033995103718209
0.1591790350329
-0.0035099956941132
0.15938590492209
-0.0036659461805436
0.15960127459368
-0.0037536036942553
-0.0039487867782941
0.15983188811449
0.14800473178898
-7.2178544016232e-05
0.14801236797442
-0.00022018139623455
0.14802540808188
-0.00036876784888082
0.14804376444915
-0.00051585628044099
0.14806719290523
-0.00065997035306173
0.14809547772987
-0.00080126033578562
0.14812854151168
-0.00094076562081124
0.14816645767229
-0.0010796549405884
0.14820942290527
-0.0012187989091041
0.14825771826621
-0.0013588225220347
0.14831168435143
-0.0015000097153409
0.14837169210135
-0.001642584194024
0.14843813235049
-0.0017863498243042
0.14851137900534
-0.0019310606332649
0.1485917813462
-0.0020756091129068
0.14867962051454
-0.0022192041517457
0.14877513292882
-0.0023600355908759
0.14887850119814
-0.002498225627106
0.14898991411685
-0.0026322805186756
0.14910960901683
-0.0027651905114877
0.14923785215304
-0.0028947997765077
0.14937510105001
-0.0030280825038466
0.14952163139643
-0.0031575971622327
0.14967822107552
-0.0032975132821905
0.14984476587307
-0.0034265066737749
0.15002260931083
-0.0035773538238945
0.15021059731131
-0.0036979837080037
0.15041127700229
-0.0038666258844644
0.15062129476392
-0.0039636214682052
-0.0041749635627845
0.15084747153424
0.1396976832145
-7.4244530357252e-05
0.13970438015163
-0.00022687836850839
0.13971586596727
-0.00038025369947616
0.1397320545386
-0.00053204488565896
0.13975270230067
-0.00068061814735149
0.13977759484606
-0.00082615291178145
0.13980665854358
-0.00096982934698286
0.13983997331865
-0.0011129697426466
0.13987774542401
-0.0012565710396165
0.13992026799547
-0.0014013451172823
0.13996789694955
-0.0015476386917618
0.14002102123119
-0.0016957084971213
0.14008005425488
-0.0018453828684732
0.14014539673882
-0.0019964031371877
0.14021743293243
-0.0021476453257939
0.14029648622819
-0.0022982574664403
0.14038284645586
-0.0024463958367869
0.14047675639495
-0.0025921355840064
0.14057847643989
-0.0027340005805332
0.14068831416833
-0.0028750282561842
0.14080662605653
-0.0030131116798182
0.14093393597839
-0.0031553924398958
0.14107064884797
-0.0032943100446876
0.14121758654119
-0.003444450987269
0.14137486003707
-0.0035837801802148
0.1415438338494
-0.0037463276459155
0.14172359905342
-0.0038777489207467
0.14191686828118
-0.0040598951205338
0.14212012027186
-0.0041668734670016
-0.0043950347636712
0.14234019146276
0.13185685930599
-7.5999141827014e-05
0.13186262386284
-0.00023264296577419
0.13187256304141
-0.00039019291850867
0.13188659229015
-0.00054607417316378
0.13190446948
-0.00069849537336998
0.13192598182346
-0.00084766528879777
0.1319510580996
-0.00099490565385276
0.1319797813283
-0.0011416929995852
0.13201236209296
-0.0012891518300483
0.13204909961137
-0.0014380826595592
0.13209035803986
-0.0015888971423434
0.132136537305
-0.0017418877831893
0.13218806479547
-0.0018969103787441
0.13224536046711
-0.002053698828033
0.13230883344056
-0.0022111183177222
0.13237884352123
-0.0023682675651773
0.13245572254756
-0.0025232748804787
0.13253977237579
-0.0026761854290751
0.1326313086311
-0.0028255368517248
0.13273071591779
-0.0029744355578818
0.13283841489172
-0.0031208106674368
0.13295501509757
-0.0032719926582228
0.13308101302948
-0.0034203079874756
0.13321730284237
-0.0035807408096614
0.13336417049361
-0.0037306478393435
0.13352304943421
-0.0039052065931855
0.13369324424163
-0.0040479437336752
0.13387789494114
-0.0042445458251037
0.13407308428325
-0.0043620628143122
-0.0046076572112901
0.13428570672366
0.12445609719005
-7.7450036439188e-05
0.12446094965227
-0.00023749548091741
0.12446937477831
-0.00039861809863929
0.1244812885242
-0.00055798797114629
0.12449645084963
-0.00071365774742325
0.12451465167305
-0.00086586615714279
0.12453582158444
-0.0010160756063622
0.12456004345778
-0.0011659149106941
0.12458752722834
-0.0013166356352698
0.1246185714498
-0.0014691269132636
0.12465354100889
-0.0016238667315596
0.12469283832056
-0.0017811851235347
0.12473689620736
-0.0019409682929373
0.1247861447813
-0.0021029474285969
0.12484101027072
-0.0022659838329174
0.12490188132933
-0.0024291386489973
0.12496912474537
-0.0025905183208734
0.12504309532473
-0.0027501560320368
0.12512415055038
-0.0029065920997681
0.12521275003565
-0.0030630350643176
0.12530934718981
-0.0032174078410392
0.12541466298689
-0.0033773084730362
0.12552921225751
-0.0035348572737325
0.12565406162284
-0.0037055901886755
0.12578950000096
-0.003866086229011
0.12593718825582
-0.0040528948577962
0.126096419535
-0.0042071750209983
0.12627099802933
-0.004419124326835
0.12645693816669
-0.0045480029591908
-0.0048121433168266
0.12666142426232
0.11747070422188
-7.8610540441179e-05
0.11747467798158
-0.00024146931625741
0.11748164480519
-0.00040558500058133
0.11749151746771
-0.00056786071009419
0.11750405939655
-0.00072619974867653
0.11751906511892
-0.00088087194739861
0.11753646613843
-0.001033476689217
0.1175563413293
-0.0011857901608873
0.11757889651442
-0.0013391908761598
0.11760442424256
-0.0014946546943699
0.11763328518976
-0.0016527277293918
0.11766587596056
-0.001813775943246
0.11770262679014
-0.0019777191700042
0.11774396554366
-0.0021442862285245
0.11779032938174
-0.0023123477163953
0.11784212143142
-0.0024809307431278
0.11789974576599
-0.0026481426987761
0.11796358996381
-0.002814000271925
0.11803406567402
-0.0029770678504207
0.11811167012858
-0.0031406395573636
0.11819690385798
-0.0033026416065928
0.1182905553676
-0.0034709600161397
0.11839314473526
-0.0036374466720481
0.11850596164266
-0.0038184071238211
0.11862914152865
-0.0039892661399049
0.11876491252427
-0.0041886658755523
0.11891180316592
-0.0043540656824226
0.11907482785255
-0.0045821490316662
0.11924855116752
-0.0047217262919735
-0.0050113393807952
0.11944774721053
0.11087738222343
-7.9507952701233e-05
0.11088053175804
-0.00024461895755849
0.11088612170342
-0.0004111750565146
0.11089405686167
-0.00057579597699347
0.11090411015671
-0.00073625314799542
0.11091608211322
-0.00089284400321887
0.11092990343389
-0.001047298104276
0.11094564266785
-0.0012015294850115
0.11096349637949
-0.0013570446742704
0.11098374591878
-0.0015149043172776
0.11100674540998
-0.0016757273017829
0.11103288073859
-0.0018399113512824
0.11106257617859
-0.0020074146877548
0.11109625014953
-0.0021779602759677
0.11113435149636
-0.0023504491382716
0.11117728267387
-0.0025238619944373
0.11122549313615
-0.0026963532331131
0.11127935952663
-0.0028678667326863
0.1113393858236
-0.0030370942151346
0.11140600462046
-0.0032072584191982
0.11147988735949
-0.0033765244069371
0.11156165293149
-0.0035527256456955
0.11165212442703
-0.003727918220878
0.11175232989174
-0.0039186126379123
0.11186285878849
-0.0040997950818818
0.11198591677635
-0.0043117239048416
0.11212012397563
-0.0044882729193201
0.11227119748252
-0.0047332225734757
0.11242860833272
-0.0048791371754782
-0.0052071856067758
0.11262445452115
0.10465414292831
-8.0185030853649e-05
0.10465655976114
-0.00024703592979131
0.10466086685703
-0.00041548229438075
0.10466698473588
-0.00058191399539364
0.10467470542348
-0.00074397397068518
0.10468383480779
-0.00090197351767384
0.10469429733567
-0.0010577607576645
0.10470614799534
-0.0012133802661657
0.10471956607805
-0.0013704628751981
0.10473482908812
-0.001530167442901
0.10475227742651
-0.0016931757536102
0.10477227584382
-0.0018599098801801
0.10479523051809
-0.0020303694720206
0.1048215421832
-0.0022042720494131
0.10485167087279
-0.0023805779346118
0.10488602430325
-0.0025582155296907
0.10492511412064
-0.0027354431532046
0.10496928792755
-0.0029120406394597
0.10501916035015
-0.0030869667342948
0.10507498929662
-0.0032630874577997
0.10513773026624
-0.003439265463747
0.10520749389662
-0.0036224893574081
0.10528593403262
-0.0038063584325385
0.10537276829813
-0.0040054469733285
0.10547068884193
-0.0041977156903142
0.10557889926948
-0.004419934391401
0.10570101001684
-0.0046103837206153
0.1058387018837
-0.0048709144898321
0.10598892247365
-0.0050293578122707
-0.0053882348983763
0.106169971712
0.098780157225092
-8.0624130844363e-05
0.098781943980958
-0.00024882284659975
0.098785010680841
-0.00041854915636724
0.098789448645747
-0.00058635211978431
0.098795018062178
-0.00074954354254738
0.098801563590089
-0.0009085191968966
0.098808994131059
-0.0010651914461801
0.098817352766429
-0.0012217390461541
0.098826802607206
-0.0013799128582018
0.098837590501151
-0.0015409554773863
0.098850031448741
-0.0017056168401865
0.098864464535326
-0.0018743431045551
0.098881256236491
-0.0020471613095246
0.098900759147297
-0.0022237750952464
0.098923404781067
-0.0024032237015649
0.098949597701552
-0.0025844085814682
0.098979911964081
-0.0027657575442362
0.099014728141462
-0.0029468569420809
0.099054809642266
-0.0031270483555621
0.099100307560234
-0.0033085854904875
0.099152458595761
-0.0034914166065658
0.099210867711047
-0.0036808985721684
0.099278186442049
-0.0038736772546987
0.099352389357495
-0.0040796499724134
0.099439380206562
-0.0042847066156141
0.099532545269703
-0.0045130995236039
0.099644718200801
-0.0047225567137047
0.099760858582062
-0.0049870549279904
0.099905628488603
-0.0051741277742638
0.10009793321458
-0.0055805396859922
0.39437912604768
0.0046474067093744
0.38989388724685
0.0044852387663147
0.38557569544223
0.0043181917709157
0.38142929421541
0.0041464011931985
0.37745924419644
0.0039700499855127
0.37366990786054
0.0037893363020854
0.37006543537302
0.0036044724535979
0.36664975262297
0.0034156827155627
0.36342655479197
0.0032231977962615
0.36039930642482
0.0030272483316881
0.35757124618807
0.0028280602009416
0.35494539362637
0.0026258525250326
0.35252455678912
0.0024208368001495
0.35031133901807
0.0022132177329592
0.34830814497241
0.00200319400705
0.34651718498826
0.0017909599444493
0.34494047827328
0.0015767066746871
0.34357985502293
0.001360623208832
0.3424369577654
0.0011428972153481
0.3415132422832
0.00092371543867786
0.34080997616908
0.0007032660698523
0.34032823416823
0.00048174195512612
0.34006887454774
0.00025935957393913
0.34003232896153
3.6545538084788e-05
0.34021970248713
-0.00018737357460713
0.34063103660075
-0.00041133416424539
0.3412664097664
-0.00063537321715276
0.34212572447426
-0.00085931476095689
0.3432086579812
-0.0010829335608082
0.34451465059502
-0.0013059926691107