/*--------------------------------*- C++ -*----------------------------------*\
| =========                 |                                                 |
| \\      /  F ield         | OpenFOAM: The Open Source CFD Toolbox           |
|  \\    /   O peration     | Version:  2112                                  |
|   \\  /    A nd           | Website:  www.openfoam.com                      |
|    \\/     M anipulation  |                                                 |
\*---------------------------------------------------------------------------*/
FoamFile
{
    version     2.0;
    format      ascii;
    arch        "LSB;label=32;scalar=64";
    class       volVectorField;
    location    "8";
    object      U;
}
// * * * * * * * * * * * * * * * * * * * * * * * * * * * * * * * * * * * * * //

dimensions      [0 1 -1 0 0 0 0];

internalField   nonuniform List<vector> 
22000
(
(1.0000010592316 -2.5420985567316e-05 0)
(1.0000261345438 -7.5379208494529e-05 0)
(1.00007400112 -0.0001247496199423 0)
(1.0001456237307 -0.00017370483812459 0)
(1.0002413327586 -0.00022236258528816 0)
(1.0003610150542 -0.00027072303857409 0)
(1.0005043430721 -0.0003186873962378 0)
(1.0006709539746 -0.00036615143608875 0)
(1.0008605150924 -0.00041302462565798 0)
(1.0010727359628 -0.00045927360055675 0)
(1.001307324642 -0.00050486012336201 0)
(1.0015640023736 -0.0005498186971422 0)
(1.0018424572317 -0.00059409659594565 0)
(1.0021423871984 -0.00063770682893101 0)
(1.0024633930805 -0.00068040028751489 0)
(1.0028050478662 -0.00072213673724779 0)
(1.0031667262091 -0.00076249238089625 0)
(1.0035478503792 -0.00080176835663733 0)
(1.0039476768142 -0.00083956209736424 0)
(1.0043658243465 -0.00087700865225266 0)
(1.0048017763606 -0.00091338820645667 0)
(1.0052557570296 -0.00095094811115721 0)
(1.0057275352549 -0.00098749343813393 0)
(1.0062180201393 -0.0010271178517014 0)
(1.0067268347972 -0.001064277538095 0)
(1.0072555634965 -0.0011073213855957 0)
(1.0078030579935 -0.0011440092262651 0)
(1.0083720402391 -0.0011924458445093 0)
(1.0089598849004 -0.0012262405001793 0)
(1.0095718629164 -0.001284742834155 0)
(1.000000522487 -7.493830391853e-05 0)
(1.0000257752688 -0.00022245646314098 0)
(1.0000743016186 -0.00036843872738163 0)
(1.0001469826712 -0.00051330749049086 0)
(1.0002441696318 -0.00065734216078599 0)
(1.0003657935699 -0.00080051508431235 0)
(1.0005115500827 -0.00094253404150272 0)
(1.00068108892 -0.0010830990929357 0)
(1.0008740685107 -0.0012219493642216 0)
(1.0010902029856 -0.0013589861586616 0)
(1.0013291829902 -0.0014940950782235 0)
(1.0015907467548 -0.0016273719098255 0)
(1.001874551853 -0.0017586576168156 0)
(1.0021803305768 -0.0018879705096939 0)
(1.0025076113265 -0.0020145546119702 0)
(1.0028560233278 -0.0021382364363505 0)
(1.0032247788558 -0.0022577388646269 0)
(1.0036134213166 -0.0023738840090289 0)
(1.0040208929657 -0.002485518350195 0)
(1.0044471255349 -0.0025959312880016 0)
(1.0048910148 -0.0027031466739904 0)
(1.0053535413407 -0.0028136632384261 0)
(1.005833297428 -0.0029213060064499 0)
(1.0063328780369 -0.0030377642303168 0)
(1.0068494177533 -0.0031473025536515 0)
(1.0073881364247 -0.0032736081808135 0)
(1.0079425697362 -0.0033819902034177 0)
(1.0085232539017 -0.0035237415915932 0)
(1.0091161795785 -0.0036242954001218 0)
(1.0097437451927 -0.0037948956632842 0)
(1.0000005459495 -0.00012279513158183 0)
(1.0000270223877 -0.00036495395111477 0)
(1.0000778603798 -0.00060487669823453 0)
(1.0001539039537 -0.00084308703159291 0)
(1.0002554348798 -0.0010799096299859 0)
(1.0003823294155 -0.0013152631552594 0)
(1.0005342475459 -0.0015486955685267 0)
(1.0007108339545 -0.0017797571905623 0)
(1.0009117363629 -0.0020080484760144 0)
(1.0011366828219 -0.0022334200614737 0)
(1.0013853485037 -0.0024556799435322 0)
(1.0016574994052 -0.0026749766527832 0)
(1.0019527554773 -0.0028910272845699 0)
(1.0022708969628 -0.0031038372732794 0)
(1.0026113591384 -0.0033121140611666 0)
(1.002973856667 -0.0035155224406602 0)
(1.003357390393 -0.0037118882956605 0)
(1.0037616913911 -0.0039025253004318 0)
(1.0041852660115 -0.0040854857782486 0)
(1.0046285191201 -0.0042662077554029 0)
(1.0050894624416 -0.0044414236556165 0)
(1.005570240389 -0.0046219166466151 0)
(1.0060675581921 -0.0047974709943244 0)
(1.0065867342174 -0.0049874660216927 0)
(1.0071207113608 -0.0051658032929159 0)
(1.0076809008281 -0.0053717772375718 0)
(1.0082514616698 -0.0055477607832319 0)
(1.0088568887161 -0.005779034760061 0)
(1.009462162145 -0.005941494769659 0)
(1.0101217278968 -0.006220572006866 0)
(1.0000005562075 -0.00017015086514974 0)
(1.0000284669498 -0.00050624811717964 0)
(1.0000821511678 -0.00083948039391848 0)
(1.0001624981014 -0.0011703264446572 0)
(1.0002697375893 -0.0014990555979977 0)
(1.0004036650387 -0.0018255408330186 0)
(1.0005638695968 -0.0021492413122645 0)
(1.000749973406 -0.0024696346633541 0)
(1.0009616062009 -0.0027862350805224 0)
(1.0011985183207 -0.0030988727141027 0)
(1.0014603700358 -0.0034072827027527 0)
(1.0017469690242 -0.0037116612276698 0)
(1.0020578873653 -0.0040115777154091 0)
(1.0023929696098 -0.0043070083290562 0)
(1.0027515260583 -0.0045960907858584 0)
(1.003133386374 -0.0048783174084606 0)
(1.0035372685836 -0.0051505730575968 0)
(1.0039631611642 -0.0054146577484296 0)
(1.0044089851482 -0.0056677600238126 0)
(1.0048757972813 -0.0059174806285231 0)
(1.0053604039616 -0.0061591543880085 0)
(1.0058665600964 -0.0064079283660335 0)
(1.0063883598775 -0.0066493641411005 0)
(1.0069349116715 -0.0069107678062992 0)
(1.0074933062926 -0.0071552769194353 0)
(1.0080836391651 -0.0074384034296774 0)
(1.0086769051446 -0.0076785628489106 0)
(1.0093172952934 -0.0079966025670894 0)
(1.0099401733521 -0.0082162219664522 0)
(1.0106453626215 -0.008601198780177 0)
(1.0000005661759 -0.00021728748814306 0)
(1.0000301484986 -0.00064731695533645 0)
(1.0000871683602 -0.0010739910504919 0)
(1.0001725781872 -0.0014975402624191 0)
(1.0002865541369 -0.0019180466544836 0)
(1.0004287980461 -0.0023353459159397 0)
(1.0005988140206 -0.0027488958519942 0)
(1.0007961980641 -0.0031581967369143 0)
(1.0010205629785 -0.0035627419833286 0)
(1.0012716943 -0.0039623798660167 0)
(1.0015492460476 -0.0043567809943838 0)
(1.0018530887413 -0.0047461864228634 0)
(1.0021827518423 -0.0051299907807105 0)
(1.0025381713719 -0.0055081172063363 0)
(1.0029185224831 -0.0058780800699309 0)
(1.0033237852508 -0.0062391648090127 0)
(1.0037523458018 -0.0065872375379864 0)
(1.0042045117321 -0.0069245617974448 0)
(1.0046774926041 -0.0072473725453879 0)
(1.0051731513008 -0.0075654649664582 0)
(1.0056868041275 -0.0078726644525803 0)
(1.006224219287 -0.0081886129612805 0)
(1.0067762209214 -0.0084944315491713 0)
(1.0073567011709 -0.0088256761997968 0)
(1.0079453443005 -0.0091341850816552 0)
(1.0085732853119 -0.0094925011402097 0)
(1.0091947335027 -0.0097937173187278 0)
(1.0098790424342 -0.010196385513125 0)
(1.0105236385678 -0.010468495646473 0)
(1.0112864929161 -0.0109578016896 0)
(1.0000005743936 -0.0002643486379771 0)
(1.0000319781473 -0.00078865455964364 0)
(1.0000926484442 -0.0013092927135422 0)
(1.0001836090203 -0.0018260177984029 0)
(1.000304973127 -0.0023385722912102 0)
(1.0004563370834 -0.0028467608808649 0)
(1.0006371138284 -0.003350137868689 0)
(1.0008468783937 -0.0038483349323681 0)
(1.0010852362582 -0.0043409010287443 0)
(1.0013520254693 -0.0048277485550006 0)
(1.001646909104 -0.0053084961098272 0)
(1.0019698438435 -0.0057834288105572 0)
(1.0023203303677 -0.0062517395386717 0)
(1.0026984229658 -0.0067132724773425 0)
(1.0031031639536 -0.007164861250536 0)
(1.0035347160653 -0.0076055426834985 0)
(1.0039911068383 -0.0080300803009344 0)
(1.004473018008 -0.008441169633317 0)
(1.0049768585124 -0.0088340005799102 0)
(1.0055054327053 -0.0092205897043652 0)
(1.0060523356054 -0.0095931445764857 0)
(1.0066257053051 -0.0099759334139663 0)
(1.0072125152039 -0.010345411241836 0)
(1.0078323447144 -0.010745724719429 0)
(1.0084560417013 -0.011116819377458 0)
(1.0091279679985 -0.011549179006518 0)
(1.0097821580952 -0.011908992039639 0)
(1.0105182647639 -0.01239501628943 0)
(1.0111879381545 -0.012715337093211 0)
(1.012019366853 -0.013308425672016 0)
(1.0000005782801 -0.0003113197022301 0)
(1.0000338523642 -0.00093025112102702 0)
(1.0000982944223 -0.0015453959668963 0)
(1.0001950042689 -0.002155793237877 0)
(1.0003240236664 -0.0027606862632392 0)
(1.0004848329651 -0.0033598591032888 0)
(1.0006767510058 -0.003953071999135 0)
(1.0008993393977 -0.0045402099456273 0)
(1.0011522103177 -0.0051209657518562 0)
(1.001435274156 -0.0056953710818682 0)
(1.0017482251327 -0.0062630124251678 0)
(1.002091132309 -0.0068242220543531 0)
(1.0024634923423 -0.0073779678064668 0)
(1.0028655071875 -0.0079239873404872 0)
(1.0032961055843 -0.0084583767048791 0)
(1.0037556653961 -0.0089798737685911 0)
(1.0042418544096 -0.0094820556770445 0)
(1.0047557773971 -0.0099680034677003 0)
(1.0052929908059 -0.010431776492731 0)
(1.0058573557816 -0.010887619093487 0)
(1.0064405678881 -0.011326028745154 0)
(1.007053447109 -0.011776002213884 0)
(1.0076786149969 -0.012209125222386 0)
(1.0083421505452 -0.01267844126693 0)
(1.0090047744979 -0.013111416855146 0)
(1.0097260858409 -0.013617383788438 0)
(1.0104168158357 -0.014033965110801 0)
(1.0112116891268 -0.014602781161547 0)
(1.011909304769 -0.01496744336727 0)
(1.0128193158635 -0.015664544033059 0)
(1.0000005766062 -0.00035804561371334 0)
(1.0000356700215 -0.001071660403354 0)
(1.0001038114033 -0.001781572550928 0)
(1.0002061796165 -0.0024858608632539 0)
(1.0003427366724 -0.00318310956888 0)
(1.0005128383219 -0.0038730987642474 0)
(1.0007157096421 -0.0045559146782461 0)
(1.0009509087633 -0.0052318282461203 0)
(1.0012180731866 -0.0059007745882356 0)
(1.0015172081385 -0.0065629673660412 0)
(1.0018480680213 -0.007217988488956 0)
(1.0022108630551 -0.0078662244118233 0)
(1.0026051209005 -0.0085064009694101 0)
(1.0030312219454 -0.0091381216805337 0)
(1.0034880159386 -0.0097566950752129 0)
(1.0039761273672 -0.010360504113004 0)
(1.0044928866265 -0.0109418655375 0)
(1.0050398646227 -0.011504184960868 0)
(1.0056117484246 -0.012040321907585 0)
(1.0062135542726 -0.012566726902173 0)
(1.0068349516812 -0.013072121940516 0)
(1.0074897138037 -0.013590288680242 0)
(1.0081556899325 -0.014087779306514 0)
(1.0088661891466 -0.014626779557522 0)
(1.0095706512103 -0.015121729457687 0)
(1.010345745795 -0.015701670494192 0)
(1.0110760591784 -0.016173978388674 0)
(1.011935752826 -0.016825871573063 0)
(1.0126637470771 -0.017231654160635 0)
(1.0136614321242 -0.018033945281455 0)
(1.0000005675008 -0.00040426531464122 0)
(1.000037332943 -0.001212103900383 0)
(1.0001089137912 -0.0020165315334833 0)
(1.0002165671298 -0.0028144244470006 0)
(1.0003601687441 -0.0036035517573214 0)
(1.0005389438862 -0.004383712260576 0)
(1.0007520278621 -0.0051554461336664 0)
(1.0009989870163 -0.0059195506069087 0)
(1.0012795061149 -0.0066763102586414 0)
(1.0015937086054 -0.0074261904389734 0)
(1.001941443147 -0.0081688049427647 0)
(1.0023230906815 -0.008904606515035 0)
(1.0027382532598 -0.0096320717022483 0)
(1.003187520699 -0.010350644098483 0)
(1.0036697120435 -0.011054807075174 0)
(1.0041857290516 -0.01174252914678 0)
(1.0047326090434 -0.01240480979168 0)
(1.0053124281677 -0.013045303631166 0)
(1.0059190204445 -0.013655625101805 0)
(1.0065586428353 -0.014254375449674 0)
(1.0072188605409 -0.014828471434646 0)
(1.0079166396876 -0.015416477002037 0)
(1.0086247132031 -0.015979800747053 0)
(1.0093842710545 -0.016589933096382 0)
(1.0101324679583 -0.017147809156483 0)
(1.0109646885375 -0.01780295514693 0)
(1.0117368497503 -0.018330860104057 0)
(1.0126664500037 -0.019067059458947 0)
(1.0134268707223 -0.019511598651224 0)
(1.0145203455314 -0.020421295784441 0)
(1.0000005500656 -0.0004496441225703 0)
(1.0000387493629 -0.0013505694903496 0)
(1.0001133313617 -0.0022485837447593 0)
(1.0002256296093 -0.0031391262240655 0)
(1.0003754286511 -0.0040190027053398 0)
(1.0005618195398 -0.0048880585962228 0)
(1.0007838544118 -0.0057474209809092 0)
(1.0010411199177 -0.0065985583084953 0)
(1.0013333717982 -0.007442218662672 0)
(1.0016608746445 -0.0082791944727261 0)
(1.0020236088835 -0.0091091771110414 0)
(1.0024221552626 -0.0099327027952972 0)
(1.0028562399393 -0.010748003016696 0)
(1.0033266924757 -0.011554338398451 0)
(1.0038323606316 -0.012345345882818 0)
(1.0043744533126 -0.013118518501753 0)
(1.0049497775027 -0.013863505201467 0)
(1.0055609517771 -0.01458412115532 0)
(1.0062010019426 -0.015270721451994 0)
(1.0068775032241 -0.015943967492259 0)
(1.0075758825568 -0.016588983699267 0)
(1.0083165105527 -0.017249049890391 0)
(1.0090667366384 -0.017880385053252 0)
(1.0098762076039 -0.018563854057221 0)
(1.0106689418881 -0.019186498088497 0)
(1.0115604768637 -0.019918990020971 0)
(1.0123759090132 -0.020503383541022 0)
(1.0133794265743 -0.021326158222822 0)
(1.0141739273353 -0.021808157681575 0)
(1.0153702150402 -0.022828622780872 0)
(1.0000005230791 -0.0004938045213556 0)
(1.0000398362782 -0.0014859033138387 0)
(1.0001168202565 -0.0024757945857552 0)
(1.0002328807169 -0.0034572600272627 0)
(1.0003877084991 -0.0044260047058777 0)
(1.0005802590025 -0.005381952630015 0)
(1.000809509342 -0.0063269522631018 0)
(1.0010750777066 -0.0072632889994243 0)
(1.0013768149172 -0.0081922927326057 0)
(1.0017151479462 -0.009115162030604 0)
(1.0020902278928 -0.010031720235187 0)
(1.0025028622257 -0.010942608838548 0)
(1.0029529541433 -0.01184583127779 0)
(1.0034416012239 -0.012740445985646 0)
(1.0039677466169 -0.013619242000973 0)
(1.0045329351775 -0.014479177068248 0)
(1.0051338200289 -0.015308545293813 0)
(1.0057735990051 -0.016111224270543 0)
(1.0064445575243 -0.016876331799304 0)
(1.007155662522 -0.017626465864773 0)
(1.0078902063369 -0.018345018741744 0)
(1.0086721550201 -0.019079856061536 0)
(1.0094632799216 -0.019782031859499 0)
(1.0103221814909 -0.020541758621151 0)
(1.0111590667536 -0.021231900014464 0)
(1.0121108311071 -0.022044803897842 0)
(1.0129700237935 -0.02268767978732 0)
(1.0140502484476 -0.023600405330078 0)
(1.0148800462708 -0.02411983619835 0)
(1.0161849099843 -0.025255664163762 0)
(1.0000004861442 -0.00053635384088218 0)
(1.0000405234086 -0.0016168947187921 0)
(1.0001191700762 -0.0026961263700229 0)
(1.0002379002449 -0.0037659696451885 0)
(1.0003963108827 -0.0048209049075081 0)
(1.0005932215089 -0.005860969444755 0)
(1.0008275427971 -0.0068888656901757 0)
(1.0010989338673 -0.0079078386402838 0)
(1.0014073635371 -0.0089199194116236 0)
(1.001753439174 -0.0099267930015917 0)
(1.002137520125 -0.010928476582785 0)
(1.0025606634353 -0.011925742488914 0)
(1.0030230020622 -0.012916396460075 0)
(1.0035259266106 -0.013899280207002 0)
(1.0040685451244 -0.01486635538636 0)
(1.0046527660381 -0.015813988606895 0)
(1.0052751730874 -0.016729147225618 0)
(1.005939581362 -0.017615667198471 0)
(1.0066376196513 -0.018461490757885 0)
(1.0073797191416 -0.019291000178285 0)
(1.0081470733662 -0.020085965579902 0)
(1.0089674140157 -0.020898648739108 0)
(1.0097968148728 -0.021675039424609 0)
(1.0107032458967 -0.022514573645543 0)
(1.0115826132698 -0.023275779064726 0)
(1.0125941133815 -0.024173047764672 0)
(1.0134965180308 -0.024877544411569 0)
(1.0146548455491 -0.02588471427786 0)
(1.0155206283134 -0.026442999188595 0)
(1.0169383784867 -0.027700035533642 0)
(1.0000004388525 -0.00057690971496463 0)
(1.0000407560991 -0.0017423541661651 0)
(1.0001202166999 -0.0029075689323605 0)
(1.0002403579648 -0.0040624309723557 0)
(1.0004006842569 -0.0052000867566391 0)
(1.0005998795651 -0.0063207230316042 0)
(1.0008367963942 -0.0074280236979452 0)
(1.0011111419759 -0.0085263289237309 0)
(1.0014230235853 -0.0096184882444065 0)
(1.0017732424802 -0.010706752154559 0)
(1.0021623998257 -0.0117913993098 0)
(1.0025918195042 -0.012873361282834 0)
(1.0030619132461 -0.013950289477617 0)
(1.00357438528 -0.015020799433784 0)
(1.004128576194 -0.016076068795445 0)
(1.0047267840588 -0.017111823526683 0)
(1.0053656094608 -0.01811376610081 0)
(1.0060495243795 -0.019085584992297 0)
(1.0067695936113 -0.020014149742336 0)
(1.0075377852673 -0.020925451054601 0)
(1.008333254788 -0.021799798281886 0)
(1.0091876506479 -0.022693605132209 0)
(1.0100513024737 -0.023547980159473 0)
(1.0110018688286 -0.024471357664943 0)
(1.0119206828524 -0.025307925812552 0)
(1.0129898792081 -0.026294288672033 0)
(1.0139337890915 -0.027064697060295 0)
(1.015170025941 -0.028171845442187 0)
(1.0160718522215 -0.028772184746809 0)
(1.0176051550364 -0.030157363280566 0)
(1.0000003817935 -0.000615121232001 0)
(1.0000404986595 -0.0018611794187189 0)
(1.0001198488532 -0.0031082489884874 0)
(1.0002400276306 -0.0043440025846326 0)
(1.0004004457477 -0.0055601610980344 0)
(1.0005996506139 -0.0067570973525024 0)
(1.0008364449262 -0.0079395956174889 0)
(1.001110589303 -0.0091132158930457 0)
(1.0014223461576 -0.010281737932487 0)
(1.0017727184846 -0.011448052974264 0)
(1.0021625766496 -0.012612772509703 0)
(1.002593522252 -0.013777017398025 0)
(1.0030662879017 -0.014938339724952 0)
(1.0035829064842 -0.016095124553583 0)
(1.0041430120575 -0.017237831042539 0)
(1.0047493159249 -0.018361503009564 0)
(1.0053985172969 -0.019450673396739 0)
(1.0060957860955 -0.02050877951236 0)
(1.0068317175191 -0.021521762090557 0)
(1.0076198885956 -0.022517026140783 0)
(1.0084374983477 -0.023473634599817 0)
(1.0093202369526 -0.024451857517166 0)
(1.0102127226168 -0.025388197370372 0)
(1.0112025068505 -0.026399744599247 0)
(1.0121563189666 -0.027316549865109 0)
(1.0132794619115 -0.028397273863032 0)
(1.0142619189975 -0.029238993517121 0)
(1.0155737301362 -0.03045216391982 0)
(1.0165111901445 -0.031099928889127 0)
(1.0181612589284 -0.032621822579124 0)
(1.0000003151951 -0.00065068297837972 0)
(1.0000397322517 -0.0019723966632846 0)
(1.0001180110711 -0.0032965011582013 0)
(1.0002367895179 -0.0046083309673606 0)
(1.0003953812713 -0.0058981074819124 0)
(1.0005921981763 -0.0071664237774773 0)
(1.0008260019809 -0.0084192707183383 0)
(1.0010966094296 -0.009663538323284 0)
(1.0014044497013 -0.010904039885542 0)
(1.0017507289233 -0.012144376582726 0)
(1.002136605631 -0.013385565350161 0)
(1.0025639626276 -0.014628946517811 0)
(1.0030338855455 -0.01587203731363 0)
(1.0035487445542 -0.017112993106301 0)
(1.004108517031 -0.018341640200852 0)
(1.0047163473215 -0.019552308068343 0)
(1.0053691049395 -0.020728486880997 0)
(1.0060726984818 -0.021873264473359 0)
(1.0068173440195 -0.022971836285808 0)
(1.0076182957807 -0.0240528139172 0)
(1.0084508957172 -0.025094283840054 0)
(1.0093549677695 -0.026160025986566 0)
(1.0102695442908 -0.027182323161936 0)
(1.0112921139034 -0.028286434189616 0)
(1.0122751565512 -0.029288774760342 0)
(1.0134466287432 -0.030469388244464 0)
(1.0144640831167 -0.031389067463097 0)
(1.0158451848183 -0.032713590612839 0)
(1.0168222159843 -0.033421818196206 0)
(1.0185799159212 -0.03508097372157 0)
(1.0000002399712 -0.00068334497294934 0)
(1.0000384566243 -0.0020751933554279 0)
(1.0001146933325 -0.0034709280154402 0)
(1.0002306123762 -0.0048534384763983 0)
(1.0003854276127 -0.0062113889570462 0)
(1.0005774172927 -0.0075456220651521 0)
(1.0008053099006 -0.0088634256264521 0)
(1.0010689772647 -0.010173112697374 0)
(1.0013690200102 -0.011480621849963 0)
(1.0017068418899 -0.012790325184673 0)
(1.0020838992413 -0.014103716072969 0)
(1.0025023519937 -0.015422383607559 0)
(1.0029636582843 -0.016743881111724 0)
(1.0034705268682 -0.018066139866864 0)
(1.0040233137072 -0.019378455314805 0)
(1.0046256111457 -0.020674420913591 0)
(1.005274515994 -0.021936637970914 0)
(1.0059767131894 -0.023167754829668 0)
(1.0067221213485 -0.024352441204731 0)
(1.0075277301647 -0.025520298038549 0)
(1.0083671412611 -0.026648762599761 0)
(1.0092843513921 -0.027804726629106 0)
(1.0102130497076 -0.028916768946089 0)
(1.0112604641622 -0.030117663510495 0)
(1.0122657237079 -0.031211064087498 0)
(1.0134777886249 -0.032497018741744 0)
(1.0145259823486 -0.033502910510142 0)
(1.015967655681 -0.03494245021385 0)
(1.0169854091209 -0.035725511961039 0)
(1.0188432499206 -0.037527719782035 0)
(1.0000001573541 -0.00071292206470058 0)
(1.0000366857317 -0.0021689509087316 0)
(1.000109929351 -0.0036304528167785 0)
(1.0002215538045 -0.0050777922142379 0)
(1.0003706703253 -0.0064980345134243 0)
(1.0005554273539 -0.0078922960565651 0)
(1.0007745260858 -0.0092692349535066 0)
(1.0010278885954 -0.010638661736163 0)
(1.0013162845281 -0.012007717295 0)
(1.0016413030263 -0.013381595390649 0)
(1.0020046966608 -0.014762331310834 0)
(1.0024088907007 -0.016151790456274 0)
(1.0028557213873 -0.017547635692144 0)
(1.0033482301673 -0.018947585843585 0)
(1.0038871692068 -0.020340518001891 0)
(1.0044765878249 -0.021719281034551 0)
(1.0051138487292 -0.023065759903761 0)
(1.005806444773 -0.024382086714129 0)
(1.0065440666219 -0.025652650950005 0)
(1.0073454803126 -0.026907823342007 0)
(1.0081826791246 -0.028124770108629 0)
(1.0091038118701 -0.029373051164235 0)
(1.0100375642343 -0.030578188624711 0)
(1.0111005415982 -0.031879656570395 0)
(1.0121196007617 -0.033069571084051 0)
(1.0133631520903 -0.034466104198291 0)
(1.0144351828136 -0.035566555400868 0)
(1.0159294403317 -0.037127304880843 0)
(1.016982516851 -0.037994274445641 0)
(1.0189356233394 -0.039950726408334 0)
(1.0000000685706 -0.00073929749451441 0)
(1.0000344485495 -0.0022532560720472 0)
(1.0001037948687 -0.0037743406331483 0)
(1.0002097542508 -0.0052803357638292 0)
(1.0003513327993 -0.0067566809769022 0)
(1.0005265531018 -0.00820478451969 0)
(1.0007340933207 -0.0096347297077559 0)
(1.0009739190905 -0.011057881037649 0)
(1.0012469599501 -0.012482642978581 0)
(1.0015549726812 -0.013915072020679 0)
(1.0018999924334 -0.015357801117668 0)
(1.0022846903238 -0.016812997143192 0)
(1.0027112692843 -0.018278500847845 0)
(1.003183091354 -0.019751838254278 0)
(1.0037013029133 -0.021221581540637 0)
(1.0042704148219 -0.022679847615887 0)
(1.0048880726485 -0.024107980795564 0)
(1.0055626019694 -0.025507548799803 0)
(1.0062835193497 -0.026862907621399 0)
(1.0070713839931 -0.028204998528393 0)
(1.007896722573 -0.029511115408163 0)
(1.0088117540449 -0.030853023081282 0)
(1.0097405507523 -0.032153943816715 0)
(1.0108086996844 -0.033559112775877 0)
(1.0118317499715 -0.034850591552846 0)
(1.0130965466701 -0.036362698712503 0)
(1.0141834412081 -0.037565480186718 0)
(1.0157211229273 -0.039254741573394 0)
(1.0168019065655 -0.040214502561639 0)
(1.0188428476832 -0.042334314652481 0)
(0.99999997533465 -0.0007624201641798 0)
(1.0000317836316 -0.0023278954526501 0)
(1.0000963976834 -0.0039021930181254 0)
(1.0001954225723 -0.0054604884856986 0)
(1.0003277558963 -0.0069865804631964 0)
(1.0004912986581 -0.0084821785789321 0)
(1.0006847057138 -0.0099588247336539 0)
(1.0009079766205 -0.011429474153447 0)
(1.0011621855254 -0.012903838014201 0)
(1.0014492377403 -0.014388869419674 0)
(1.0017714271523 -0.015887844362342 0)
(1.0021316475061 -0.017403259508 0)
(1.0025324379324 -0.01893319021184 0)
(1.0029774633793 -0.020475001665643 0)
(1.003468235655 -0.022017057945153 0)
(1.0040097303658 -0.02355078957088 0)
(1.0045998653513 -0.025057148694763 0)
(1.0052478225621 -0.026537151143042 0)
(1.0059429788202 -0.027975315251175 0)
(1.0067076788531 -0.029403037336224 0)
(1.0075111334394 -0.030798078201661 0)
(1.0084094684688 -0.032234011549997 0)
(1.0093225885515 -0.033632538458633 0)
(1.0103845754387 -0.035143662515613 0)
(1.0114005931772 -0.036541094499421 0)
(1.0126752805828 -0.03817332056948 0)
(1.0137662925455 -0.039485662850536 0)
(1.0153374088582 -0.041311341285971 0)
(1.0164367240498 -0.042373288953352 0)
(1.0185529097605 -0.044664314101127 0)
(0.99999987878542 -0.00078229731628295 0)
(1.0000287337156 -0.0023928338318868 0)
(1.0000878586211 -0.0040139135295745 0)
(1.0001787988866 -0.0056180989409328 0)
(1.0003003451322 -0.0071875453167467 0)
(1.000450281769 -0.0087242668533048 0)
(1.0006272352533 -0.010241276375697 0)
(1.0008312259543 -0.0117531341525 0)
(1.0010634461864 -0.013270876625589 0)
(1.0013259257848 -0.014802373395751 0)
(1.0016211806089 -0.0163515710155 0)
(1.0019523047008 -0.017921328156339 0)
(1.0023221280806 -0.019509998830089 0)
(1.0027346041232 -0.02111484315361 0)
(1.0031915551289 -0.02272409170624 0)
(1.0036984266276 -0.024328586965983 0)
(1.0042533645124 -0.025908977683888 0)
(1.0048664307777 -0.027465839460917 0)
(1.0055268680552 -0.028983908405889 0)
(1.0062587697547 -0.030495102620793 0)
(1.0070302006965 -0.031977763071613 0)
(1.0079008987687 -0.033507147986309 0)
(1.0087872303416 -0.035004005291951 0)
(1.0098308465614 -0.036622273467367 0)
(1.0108280768947 -0.03812911232339 0)
(1.0120994671745 -0.039885135417959 0)
(1.013183121104 -0.041313107818188 0)
(1.0147735583177 -0.043285092548052 0)
(1.0158858147797 -0.044454507046577 0)
(1.0180502907858 -0.046927053260496 0)
(0.99999977923072 -0.00079898816283082 0)
(1.0000253406223 -0.002448189370631 0)
(1.0000783017944 -0.0041096554304606 0)
(1.0001601364647 -0.0057533559443953 0)
(1.0002695313625 -0.0073598151345639 0)
(1.0004041614437 -0.0089313534615721 0)
(1.0005626210883 -0.010482453137294 0)
(1.0007449416692 -0.012029275395688 0)
(1.0009524036549 -0.013584185116363 0)
(1.0011871331909 -0.015155974896231 0)
(1.0014518148917 -0.0167492685684 0)
(1.0017497064666 -0.018367302249617 0)
(1.0020838657468 -0.020008725213762 0)
(1.0024585063575 -0.021670746268629 0)
(1.0028757033087 -0.023341516308292 0)
(1.0033413614527 -0.025011433124218 0)
(1.0038538372698 -0.026660892355501 0)
(1.0044240506317 -0.028290256012075 0)
(1.0050411755238 -0.029884374151765 0)
(1.0057308681237 -0.031475998736719 0)
(1.0064603740324 -0.033043747887445 0)
(1.0072923511919 -0.034665001448143 0)
(1.0081408736135 -0.036259320355793 0)
(1.0091529678434 -0.037984819201388 0)
(1.0101199464311 -0.039602644873367 0)
(1.011372229108 -0.041484919214074 0)
(1.0124372815181 -0.043032203646435 0)
(1.0140292241065 -0.045159112678108 0)
(1.0151453638038 -0.046442467745758 0)
(1.0173402245074 -0.04910435712786 0)
(0.99999967417839 -0.00081262098190584 0)
(1.0000216685735 -0.0024942583996671 0)
(1.0000678983351 -0.0041898191879089 0)
(1.0001397598045 -0.0058667335606152 0)
(1.0002358405619 -0.0075039305654741 0)
(1.0003537101227 -0.0091040355553454 0)
(1.0004919287427 -0.010682981538837 0)
(1.000650527744 -0.012258502559117 0)
(1.0008308421312 -0.013844290156479 0)
(1.0010350684949 -0.015450064610938 0)
(1.0012660237212 -0.017081150041868 0)
(1.0015270826213 -0.018741170622475 0)
(1.001821485269 -0.020429093899354 0)
(1.0021536070583 -0.022142092752187 0)
(1.0025257802606 -0.023868291975426 0)
(1.0029441954765 -0.025597711682667 0)
(1.0034076136948 -0.027310554572103 0)
(1.0039274438759 -0.029007105219615 0)
(1.0044933751432 -0.03067224625303 0)
(1.0051317025176 -0.032339885028916 0)
(1.0058102092909 -0.033988452731839 0)
(1.0065922612213 -0.035698332223027 0)
(1.0073928719094 -0.037386637911379 0)
(1.0083593655314 -0.039217758807814 0)
(1.0092858514577 -0.040944493793233 0)
(1.0105010678156 -0.042953310635008 0)
(1.0115381045163 -0.044620303601077 0)
(1.0131091995391 -0.04690372705298 0)
(1.0142161943955 -0.048302975796511 0)
(1.0164272086006 -0.051155615349595 0)
(0.99999956497419 -0.00082347806702197 0)
(1.0000178889791 -0.0025317734465448 0)
(1.0000570230903 -0.0042554169635419 0)
(1.0001182673538 -0.0059594518637061 0)
(1.0002001281143 -0.0076212947191446 0)
(1.0003000850516 -0.0092438720989059 0)
(1.000416668162 -0.01084450822506 0)
(1.0005498928071 -0.012442451742081 0)
(1.0007010812702 -0.014052706490068 0)
(1.0008724514706 -0.01568590563053 0)
(1.0010669342635 -0.017348100251133 0)
(1.001287963789 -0.019043299440741 0)
(1.0015390011102 -0.02077087678018 0)
(1.001824407019 -0.022528015620557 0)
(1.0021470024804 -0.024303034684938 0)
(1.0025128074609 -0.026085583887031 0)
(1.0029217096667 -0.027855950386377 0)
(1.0033843417017 -0.029614056269626 0)
(1.0038927574797 -0.031345094400461 0)
(1.0044708103558 -0.033083547033363 0)
(1.0050913221449 -0.034808041308499 0)
(1.0058113407946 -0.036601744832602 0)
(1.0065570704347 -0.03837886540867 0)
(1.0074607253826 -0.040312498902012 0)
(1.0083417393889 -0.042141851808889 0)
(1.0094945911351 -0.044279423051603 0)
(1.0105067526529 -0.046057557119564 0)
(1.0120187890237 -0.048509181242212 0)
(1.0131334908873 -0.050001759294513 0)
(1.0153064365274 -0.05309927075157 0)
(0.99999944792479 -0.00083212670367842 0)
(1.0000142774052 -0.0025624779671093 0)
(1.0000462410343 -0.0043091651421984 0)
(1.0000964234834 -0.0060352808332686 0)
(1.0001633484668 -0.0077168238882128 0)
(1.0002444808609 -0.0093570973258109 0)
(1.0003383197217 -0.010974766078109 0)
(1.0004448423323 -0.012590476998143 0)
(1.0005652282101 -0.014220659822633 0)
(1.0007017866222 -0.015876715166958 0)
(1.0008575382416 -0.017565441719312 0)
(1.0010358657966 -0.019291162926194 0)
(1.0012404314086 -0.021053694451976 0)
(1.0014752968307 -0.022850216815777 0)
(1.0017440496931 -0.024669640884098 0)
(1.0020520083305 -0.026501271513378 0)
(1.0024013575768 -0.028326393239621 0)
(1.002800302575 -0.030144007212117 0)
(1.0032461821871 -0.03194142372064 0)
(1.0037553227847 -0.033751379641251 0)
(1.0043131786358 -0.035556681812013 0)
(1.0049573728982 -0.03743774634254 0)
(1.0056450181014 -0.039314501141154 0)
(1.0064619060993 -0.041358185827366 0)
(1.0073004705969 -0.043308726261221 0)
(1.0083469221164 -0.045591645828948 0)
(1.0093584836267 -0.047506195022861 0)
(1.0107301695311 -0.050177180337972 0)
(1.0119504566182 -0.05177126064183 0)
(1.0139829725213 -0.055422432624437 0)
(0.99999925072015 -0.00083998216546201 0)
(1.0000102406528 -0.0025908606398935 0)
(1.0000348225517 -0.0043599956758336 0)
(1.0000734547656 -0.0061087075483707 0)
(1.0001249336336 -0.0078107937727288 0)
(1.000186823159 -0.0094699107061646 0)
(1.0002577712194 -0.011106145347537 0)
(1.0003375603094 -0.012741768560367 0)
(1.0004274542949 -0.014394571738729 0)
(1.0005294003766 -0.016077321034579 0)
(1.0006464397789 -0.017797565085529 0)
(1.0007818538751 -0.019559916165208 0)
(1.000939377657 -0.02136456773636 0)
(1.0011224953766 -0.02320847614955 0)
(1.0013352222493 -0.025081092179221 0)
(1.0015817643144 -0.026971141171729 0)
(1.0018669115396 -0.028861479047705 0)
(1.0021960919563 -0.030749715999058 0)
(1.0025738586669 -0.032627577469143 0)
(1.0030072350644 -0.034523984252324 0)