/*--------------------------------*- C++ -*----------------------------------*\
| =========                 |                                                 |
| \\      /  F ield         | OpenFOAM: The Open Source CFD Toolbox           |
|  \\    /   O peration     | Version:  2112                                  |
|   \\  /    A nd           | Website:  www.openfoam.com                      |
|    \\/     M anipulation  |                                                 |
\*---------------------------------------------------------------------------*/
FoamFile
{
    version     2.0;
    format      ascii;
    arch        "LSB;label=32;scalar=64";
    class       volScalarField;
    location    "5.7";
    object      p;
}
// * * * * * * * * * * * * * * * * * * * * * * * * * * * * * * * * * * * * * //

dimensions      [0 2 -2 0 0 0 0];

internalField   nonuniform List<scalar> 
22000
(
0.066564966877032
0.066543116028503
0.066497684768112
0.066427523888768
0.066332092485635
0.066211350430274
0.066065442213432
0.065894541576375
0.065698785062735
0.065478226278625
0.065232831399772
0.064962528726067
0.064667253648008
0.064346969864745
0.064001651710847
0.063631289727054
0.063235870095017
0.062815412329539
0.062369925125743
0.061899482593155
0.06140411475747
0.060883974604975
0.060339088669478
0.059769738937918
0.059175897711225
0.058558087314733
0.057916099803486
0.057250924166435
0.056561854286676
0.055850760065536
0.066980071029261
0.066957269794927
0.066910957228864
0.066840135851969
0.066744208967433
0.066623019778511
0.066476623079696
0.06630513856635
0.066108665374352
0.06588722942528
0.065640780531289
0.065369243666295
0.065072553476698
0.064750673327724
0.064403566880618
0.064031214193561
0.06363357528316
0.063210651668019
0.062762410408349
0.062288908236954
0.0617901175209
0.061266186361976
0.060717061288696
0.060143047307318
0.059543986470549
0.058920471528133
0.058272043160186
0.057599825642295
0.056902554389005
0.056182166307718
0.067735007449525
0.067711954109639
0.067665188178915
0.067593815207809
0.067497305836045
0.067375517540847
0.067228482250143
0.067056278517587
0.066858960744044
0.066636517618903
0.066388866424503
0.066115901398602
0.065817517069699
0.065493635785866
0.065144168736858
0.064769053030995
0.064368187425261
0.06394153406725
0.063488984503552
0.06301056603406
0.062506152572364
0.061975888331022
0.06141958149602
0.060837588193656
0.060229527748135
0.059596162290903
0.058936616896682
0.058252395737269
0.057541291289699
0.056805638428115
0.068772978089962
0.068749863768356
0.068702967479527
0.06863141754966
0.068534709298335
0.068412705605851
0.068265412870555
0.068092862933131
0.06789505668993
0.067671933742907
0.067423362287755
0.067149188432178
0.066849248222259
0.066523407563734
0.066171505418447
0.065793419333577
0.065388960989954
0.064958036208532
0.064500428254345
0.064016121805792
0.063504850264597
0.06296674915399
0.062401428465798
0.061809309734615
0.061189695172722
0.060543564856431
0.059869445129564
0.059169309950798
0.0584395865722
0.057683028769147
0.070043249199661
0.070020215437459
0.069973463813607
0.06990212311631
0.069805682303747
0.069683991361997
0.069537028566211
0.069364782124843
0.069167197649513
0.06894415677745
0.068695463609592
0.068420899412356
0.0681202220174
0.067793221922773
0.067439641787992
0.067059278591109
0.066651827505886
0.066217117057065
0.065754786533543
0.065264759475583
0.064746583405418
0.064200372555103
0.063625477951257
0.063022387260279
0.062389995675206
0.061729530289802
0.061038767713564
0.060320231954266
0.059568693432192
0.058787390748423
0.071500141226543
0.071477353033481
0.071431083547266
0.0713604550675
0.071264940069502
0.071144368727125
0.070998685405015
0.070827826576196
0.070631670552027
0.07041002693054
0.070162619598958
0.069889148380306
0.069589272822768
0.069262688226655
0.068909016436668
0.068527952614875
0.06811904628263
0.067682026973665
0.067216354425391
0.06672187043805
0.066197892908524
0.065644498489062
0.065060724514831
0.064447118272777
0.06380209483942
0.063127142368199
0.062419175744193
0.06168130980632
0.060906438983706
0.060098231900501
0.073102591474547
0.073080264368215
0.073034913316112
0.072965655500251
0.072871943492145
0.072753580125701
0.072610464893999
0.072442470051281
0.072249392972139
0.072030957704195
0.071786793380764
0.071516503769841
0.071219632183032
0.070895760280077
0.070544365228287
0.070165018818534
0.069757095934366
0.069320204644406
0.068853590180793
0.068356989751639
0.067829449300422
0.067270985375383
0.0666802711738
0.066057893155303
0.065401725422342
0.064713501071527
0.06398919067239
0.063232478038201
0.062434233182946
0.061598372028048
0.074813602481739
0.07479199701073
0.074748090966013
0.074681000063169
0.074590154267024
0.074475322163846
0.074336348862737
0.074173032356131
0.073985078663646
0.073772114412569
0.07353365854044
0.073269202126105
0.072978153784534
0.072659963979827
0.072313943345072
0.071939519231669
0.071535863217037
0.071102437777822
0.070638238867413
0.070142873637294
0.069615075506489
0.069054772578948
0.068460230061151
0.067832037977473
0.067167486413016
0.066468503963443
0.065730072472719
0.064956356093267
0.064136133678961
0.063273251516699
0.076599816572041
0.076579230297074
0.076537369090839
0.076473353406599
0.07638659103483
0.076276811380463
0.076143796852858
0.075987261439167
0.075806809683602
0.075601960649215
0.075372111311139
0.075116625420146
0.074834758220173
0.074525809544731
0.07418890244319
0.073823299396305
0.073427943354604
0.073002127134379
0.07254456416725
0.072054704393671
0.071530929108311
0.070973045187825
0.070378870337319
0.069748947643941
0.069079959458224
0.068373942128507
0.067624893997715
0.066837302534901
0.065997888071446
0.065109970915081
0.078431269577125
0.078412026197432
0.078372864968546
0.078312918872804
0.078231575015835
0.078128520179763
0.07800346745232
0.077856038435008
0.077685727688826
0.077491937709175
0.077273934002003
0.07703094080399
0.076762046647142
0.076466382342643
0.076142864043351
0.075790566689008
0.075408182350983
0.074994809911258
0.074548849594025
0.074069568168117
0.073554951781894
0.073004657734652
0.07241601277762
0.071789458923486
0.071121064599673
0.070412841725862
0.069657880054084
0.068860728446429
0.068006188520889
0.06709647196562
0.080281244999293
0.080263685498235
0.080227913681598
0.080173084819028
0.080098569164661
0.080004008729739
0.079889042382197
0.079753193055264
0.079595839458696
0.079416260734002
0.079213584465158
0.078986885301349
0.078735075022044
0.078457100226321
0.078151656186789
0.077817608233555
0.077453376764303
0.077057842453753
0.076629063878586
0.076166101797456
0.075666504330427
0.07512975226549
0.07455263856485
0.073935438355615
0.07327362639182
0.072569005946785
0.071813907484806
0.071012594801533
0.07014819301646
0.06922109015662
0.082126180227821
0.082110650413207
0.082078969728226
0.082030326513514
0.081964078542255
0.081879822678801
0.081777121037306
0.081655394663149
0.081513903354864
0.081351799664258
0.081168069304258
0.080961631694036
0.080731214009692
0.08047556852629
0.080193157897057
0.079882622250452
0.079542094581904
0.079170209179746
0.0787646676222
0.078324282307648
0.077846151695734
0.077329522322391
0.076770637400018
0.07616953181613
0.075521087880782
0.07482674156851
0.074078219490827
0.073279050209133
0.072411119686485
0.071472052695119
0.083945591382809
0.083932432072363
0.083905533891571
0.08386413098217
0.083807575119634
0.083735418796921
0.083647146780506
0.08354207829754
0.083419354881437
0.083278003181122
0.083116866820314
0.082934708565467
0.082730067277298
0.082501495660898
0.082247215528116
0.081965631682631
0.081654577123962
0.081312420405418
0.08093648927238
0.080525309444988
0.080075523555084
0.079586070114625
0.079052667979935
0.078474974180346
0.077847359802531
0.077170659809528
0.076436189081781
0.075646298928576
0.074782095160394
0.073837371736087
0.085721993382832
0.085711528873592
0.085690073614359
0.085656920920993
0.085611423719149
0.085553093067934
0.085481338409296
0.085395380241306
0.085294246250874
0.08517684207424
0.085041873447083
0.084887949506342
0.084713422177639
0.084516644183786
0.084295594055906
0.084048435607664
0.083772694848631
0.083466460421977
0.083126675869157
0.08275154704155
0.082337255090027
0.081882358122325
0.081382086765508
0.080835555913811
0.08023676618792
0.079585625818093
0.07887332856453
0.078100534034091
0.077248025850286
0.076304719259182
0.087440798874398
0.087433328707084
0.087417926757881
0.087393960230449
0.087360792036731
0.087317896042501
0.087264610593085
0.087200064051447
0.087123178924355
0.087032748987729
0.086927350815824
0.086805447486064
0.086665210945032
0.086504798715463
0.086321950412027
0.086114588130388
0.085879931841824
0.085615778982345
0.085318688950423
0.084986514766601
0.084614985565118
0.084202195464245
0.08374294159898
0.083235614674511
0.082674007901804
0.082056758668135
0.081375249408839
0.080627907581529
0.079795676700762
0.07886148004008
0.089090187113376
0.089085977630294
0.089077174169537
0.08906323196351
0.08904353400319
0.089017523594764
0.088984474084601
0.088943430956192
0.088893224179222
0.088832549176718
0.088759866819814
0.088673506537556
0.088571473000027
0.088451738848378
0.088311816251876
0.08814939005514
0.087961384478
0.08774529678761
0.087497316890109
0.087214906655252
0.086893378555462
0.086530262674178
0.086120005301809
0.085660070999751
0.085144209969026
0.084569470255207
0.08392768940186
0.083214580445597
0.082411726243997
0.081494837956465
0.090660941384072
0.090660219115454
0.090658479472897
0.09065528354068
0.090650045795611
0.090642182559796
0.090630909905371
0.090615204282213
0.090593819623993
0.090565370086385
0.090528218787307
0.09048057871112
0.09042030565918
0.090345203171154
0.090252574982216
0.090139878368594
0.090003762702184
0.089841417896459
0.089648696294131
0.089422623932058
0.089158159411671
0.088852157583405
0.0884988208188
0.088094495166686
0.087633011573164
0.087109581181995
0.086516656470007
0.085846816058688
0.085082843664868
0.08419181320245
0.09214625823865
0.092149205118776
0.092154908271312
0.092163051942142
0.092173089259826
0.092184417942981
0.092196208866399
0.092207383905734
0.092216639113727
0.092222527560884
0.092223336828687
0.092217184997311
0.092201802872071
0.092174845656092
0.092133435091677
0.092074816126009
0.091995393926771
0.09189204904604
0.091760339698513
0.091596817479961
0.091396158136492
0.091154447139757
0.09086574487936
0.090525133624701
0.090126621802299
0.089663369150601
0.089128595077585
0.088511220007197
0.087795912396827
0.086939578801473
0.093541526414517
0.093548281893274
0.093561715954792
0.093581651332547
0.093607592521515
0.0936389270855
0.093674792264926
0.093714074012265
0.093755432833302
0.093797381936975
0.093838157542312
0.093875807202092
0.093907966071401
0.093932166514454
0.093945381978899
0.093944666190577
0.093926217868563
0.093886616393485
0.093821170747733
0.0937259434054
0.093595379995588
0.09342475208545
0.093208034965954
0.092938972502558
0.092611840024364
0.092217549290321
0.091750326467199
0.091194805035221
0.090538168763086
0.089725717724287
0.09484409634973
0.094854750540174
0.094876109529613
0.094908153222851
0.09495044601046
0.095002367946773
0.095063031587835
0.095131307741786
0.095205851857934
0.095285166362208
0.095367463754875
0.095450743005756
0.095532575099856
0.095610398284718
0.095681079259667
0.095741507071633
0.095787717957682
0.095816011950073
0.095821490064934
0.095799747040479
0.095745019787348
0.095651792605009
0.095513938756375
0.095323882794136
0.095076167949451
0.094759409862712
0.094368987930289
0.093884911748815
0.093297053047183
0.092537998389444
0.096053025210925
0.096067629212535
0.096097019936188
0.096141350767043
0.096200262126611
0.09627313851389
0.096359072199871
0.096456917633762
0.09656534428419
0.096682886312784
0.096807780745457
0.096938003623822
0.097071093619799
0.097204421405248
0.097334796626024
0.097458970050899
0.097572869053852
0.097672540000001
0.097752923337886
0.097809191332022
0.097835380678726
0.09782528959928
0.097772598773105
0.097668599884236
0.0975078427796
0.097277013652975
0.09697221326868
0.096569644970601
0.096060699192774
0.095364901672241
0.097168809879841
0.097187387454493
0.097224854699784
0.09728153140957
0.097357142310888
0.09745110785684
0.097562541811648
0.097690291706522
0.097833021509985
0.097989298154941
0.098157429169497
0.098335413484238
0.09852081109468
0.098710951065631
0.09890264331518
0.099092518594719
0.099276470919711
0.099450297779387
0.09960886478865
0.099746925882811
0.099858377953224
0.099936402003346
0.099974433821549
0.099962945940025
0.099895988165777
0.099759281754337
0.099547881899236
0.099237649629905
0.09881730822559
0.098199100584275
0.09819313376157
0.098215596132435
0.098261099720711
0.098330124685089
0.098422426439395
0.098537412234921
0.098674239775556
0.098831864858806
0.099009040172233
0.099204341464873
0.099416088475359
0.099642303687518
0.099880646283532
0.10012844607653
0.10038257360879
0.10063954253196
0.10089531120368
0.10114538736912
0.10138472460988
0.10160754222061
0.10180783258529
0.10197793025091
0.10211129500531
0.10219746328908
0.1022299539198
0.10219433723358
0.10208202894054
0.1018733220039
0.10154414252457
0.10102662439071
0.099128945382898
0.099154794904293
0.099207842019698
0.099288942930392
0.099397858890605
0.09953380406474
0.099695749419491
0.09988272072927
0.10009380629066
0.10032778652053
0.10058296945267
0.10085733351725
0.10114865673064
0.10145431088183
0.10177127598717
0.10209594341864
0.10242441327109
0.10275182802303
0.10307339904319
0.10338255978901
0.10367383195835
0.10393803345339
0.10416962534388
0.10435560086546
0.10449115791227
0.10455871539537
0.10455062604295
0.10444483613527
0.10420278002339
0.10377507355479
0.099981187343334
0.10000947308657
0.10006870738164
0.10016062628123
0.10028511536118
0.1004412361003
0.10062756963459
0.10084303542919
0.10108682546202
0.10135793164083
0.10165480020006
0.10197551082935
0.10231799986096
0.1026797487957
0.10305794959721
0.10344896729892
0.10384908210993
0.10425318999409
0.10465684339216
0.1050526515936
0.10543586656335
0.1057953498663
0.1061276281494
0.10641507602601
0.10665856705763
0.10682917362952
0.10693685122971
0.10693140366597
0.10681310198486
0.10641978643729
0.055161328428324
0.054498091965647
0.053816317017124
0.053117024566565
0.052401256137633
0.051669803674574
0.05092322729724
0.050161970130976
0.049386466164247
0.048597213225665
0.047794804476655
0.046979919089388
0.046153287297535
0.045315659518215
0.044467797847964
0.043610485247125
0.042744536548235
0.041870801721572
0.040990164760743
0.040103543530942
0.039211895095525
0.038316223580182
0.037417596976301
0.036517156340838
0.03561607552475
0.034714951185719
0.033814478058841
0.032915691448272
0.032019768862555
0.031127829793969
0.030240865276783
0.029359766653866
0.028485377661536
0.02761852914453
0.026760049976662
0.025910761204188
0.025071472631346
0.024242975849188
0.023426044544792
0.022621427138821
0.021829845429073
0.021051988166138
0.020288502417702
0.019540002702918
0.018807034865083
0.0180901330165
0.017389696772199
0.016706167635161
0.016039640518123
0.015390334839335
0.055486566503627
0.054819352493153
0.054131020307125
0.053424423595524
0.052701541436629
0.051963219122099
0.051209655565656
0.050440892131764
0.04965708878913
0.048858624193695
0.048046079917173
0.047220158047064
0.046381590954252
0.045531100327899
0.04466941507977
0.043797308819716
0.042915617180588
0.042025232222396
0.041127089439326
0.040222159990301
0.0393114399399
0.038395932066384
0.037476600473531
0.036554317842655
0.035629873283616
0.034704963503955
0.033781150972603
0.032859514272734
0.031940926116048
0.03102629212074
0.030116612816358
0.029212936931566
0.028316308621497
0.027427738883262
0.026548203434317
0.025678647132589
0.024819985000812
0.0239731027677
0.023138848917018
0.022318044346951
0.021511455118621
0.020719832727222
0.019943833185996
0.01918414807337
0.018441277913741
0.017715913964417
0.01700831894199
0.016319422338524
0.015649150418319
0.014999793781008
0.056096815875223
0.055414199997579
0.054704520454384
0.053974779262184
0.053229182252112
0.052468866506374
0.051693429376336
0.050902240023918
0.050095062773488
0.049272187671169
0.048434300140248
0.047582249589109
0.046716855130679
0.045838847614647
0.044948935297463
0.044047890148886
0.043136576209937
0.042215926547584
0.041286914671641
0.040350543419583
0.039407848951664
0.038459910050982
0.037507870750371
0.036552978867077
0.035596617872687
0.034639860375251
0.033683791854963
0.03272959191705
0.031778453939211
0.030831550068738
0.029890032490889
0.028955034747684
0.028027665003908
0.027108995666616
0.026200057436004
0.025301841143654
0.024415295296312
0.023541338946161
0.022680837182934
0.021834642071138
0.021003512297301
0.020188243933721
0.019389445255334
0.018607905685633
0.017843993379074
0.017098661574598
0.016371872672026
0.015665402348042
0.014978722592308
0.014317576070193
0.05695415319769
0.05624533406148
0.055500991762939
0.054734722087299
0.053954070155455
0.05316046951016
0.052352504827877
0.051528511511065
0.050687690567737
0.049830231465067
0.048956977658213
0.048068972751993
0.047167126704727
0.046252144683126
0.045324666661727
0.044385425324128
0.043435290691498
0.04247522544371
0.041506236901108
0.040529365650309
0.039545695841021
0.038556363407848
0.037562551032254
0.036565468073539
0.035566317315247
0.03456634111678
0.033566811388262
0.032569020355663
0.031574264061897
0.030583818904238
0.029598930805496
0.028620811354491
0.027650636183715
0.026689540340537
0.025738614148928
0.024798907326252
0.023871418394325
0.022957119123758
0.022056907098957
0.021171690829153
0.020302237896036
0.01944942999499
0.01861383401383
0.017796408230535
0.016997360561824
0.016218065860823
0.015458088386525
0.01472054844713
0.014004417813149
0.013321164096374
0.058033884354463
0.057290344027935
0.056500295817046
0.055686358065965
0.05486046900682
0.054024279653442
0.0531748893972
0.052309219683594
0.051425752296525
0.050524581914166
0.049606772511228
0.048673607795652
0.047726091807902
0.046764874882727
0.045790493257773
0.044803617067015
0.043805111551939
0.042795960064409
0.041777187764434
0.040749844575406
0.039715021365516
0.038673862581796
0.037627566653059
0.03657738097776
0.035524601297337
0.034470570380254
0.033416662773248
0.032364266414081
0.031314769487019
0.030269546138074
0.029229945613174
0.028197279528851
0.027172815923769
0.026157772724108
0.025153314343423
0.024160556805778
0.023180552115274
0.022214327096377
0.021262812906424
0.020326981190041
0.019407607551815
0.018505676592377
0.017621704998208
0.016756867282734
0.015911176319825
0.01508656267241
0.014282092312805
0.013502675593607
0.0127466546589
0.012033121002081
0.059317243644303
0.058531831079153
0.057686198261169
0.056814544108843
0.055934283511944
0.055047177963959
0.054148344928769
0.05323291751392
0.052298528892152
0.051345211986178
0.050374331375097
0.04938746554584
0.048385720536598
0.04736966717713
0.046339707653938
0.045296431092759
0.044240690787165
0.043173485371653
0.042095848340471
0.041008827796235
0.039913514796172
0.038811066399096
0.037702711257928
0.036589745988223
0.035473529920384
0.034355474278687
0.033237034053798
0.032119691967563
0.03100494315748
0.029894274391311
0.028789148957337
0.027690986067267
0.026601153458967
0.025520954886823
0.024451629703076
0.023394357686166
0.022350245378686
0.021320376259355
0.020305721500729
0.019307324301885
0.018325977692343
0.017362789775984
0.01641823306036
0.015493747135832
0.014589130430839
0.013707000803855
0.012845841837378
0.012012805164057
0.011205521849426
0.010452804359611
0.060788465205373
0.059955072217322
0.059044913152196
0.058106484075319
0.057163763001193
0.056218447387063
0.05526313096168
0.054290787761738
0.053298099913717
0.052285090537041
0.051253505134552
0.050205260828628
0.04914156271852
0.04806287049032
0.046969417758941
0.04586169115271
0.044740522465958
0.043606918603683
0.042461911592747
0.041306535585653
0.040141869326007
0.038969069464085
0.037789379465773
0.036604126091061
0.035414714920169
0.034222623538953
0.033029394410207
0.031836616174349
0.030645904565066
0.029458872179402
0.028277109389606
0.027102153342208
0.025935481496537
0.024778490114686
0.023632502790379
0.022498768669345
0.021378459502253
0.020272721161413
0.019182577962257
0.018109152893941
0.017053272842226
0.016016185666922
0.014998332067971
0.014001454988638
0.013025121816507
0.012072757860192
0.011142172899681
0.010243232898091
0.009372796103795
0.0085718055648375
0.062434372191397
0.061547839347461
0.060565057758107
0.059551735774775
0.058539504029175
0.057529720332014
0.056511829255368
0.055476257974347
0.054418663679966
0.053339146248527
0.052239929283403
0.051123308540209
0.049990571933781
0.048842028068254
0.047677708946491
0.04649798196892
0.045303649180161
0.044095716430351
0.042875200980105
0.041643107416179
0.040400485947563
0.039148476469682
0.037888322056051
0.036621367709081
0.035349060292552
0.034072940244391
0.032794637148698
0.031515848444492
0.03023831835544
0.028963795502407
0.027694010003223
0.026430628334364
0.025175252361365
0.023929381570439
0.02269443825256
0.021471747351394
0.020262559490872
0.019068084781356
0.017889417681058
0.016727763387937
0.015584007180101
0.014459544610107
0.013354812520093
0.01227188746855
0.011210117802315
0.010173852599546
0.0091601829113779
0.0081821908232819
0.0072359840818822
0.0063772816311249
0.064243408515512
0.0632994456049
0.062236699632507
0.061141182944384
0.060053264308865
0.058973623801138
0.05788789749341
0.056783569694499
0.055655196898289
0.054503049783559
0.053329943276623
0.052138598889802
0.05093036045723
0.049705330179412
0.048463300215674
0.047204506321359
0.045929716382009
0.044639924226184
0.043336115010486
0.042019245209983
0.040690319345072
0.039350444375687
0.03800084766236
0.036642876638362
0.035278002623743
0.033907815841359
0.032534032496878
0.031158460205904
0.029782975180341
0.028409468264305
0.027039821697355
0.025675843367502
0.024319276315678
0.02297173426561
0.02163475681128
0.020309751263723
0.018998069381905
0.017700989893564
0.016419710348063
0.015155521032277
0.013909412898116
0.01268293251638
0.011476573647332
0.010292762126376
0.0091306823576451
0.0079956977075742
0.0068841898954726
0.0058129379646143
0.0047774302331752
0.0038510208962843
0.066204723532689
0.06519979367273
0.064050505876541
0.062866425501323
0.061697615026592
0.060543585584709
0.059385493637696
0.058207549436028
0.057003174718176
0.055772915583382
0.05452029411346
0.053248499876674
0.051958893247819
0.05065130466427
0.049325245075975
0.047980805265021
0.046618712016557
0.045239932284791
0.043845396649557
0.042435988972993
0.041012645095397
0.039576419201219
0.038128506421964
0.036670251568238
0.035203122410644
0.033728722426942
0.032248837715711
0.030765405748787
0.029280446553927
0.027795992839109
0.026314087248519
0.024836690409606
0.02336570564838
0.02190287080668
0.020449864857697
0.019008183920558
0.017579313086524
0.016164600838843
0.014765396096048
0.013383068702394
0.012018788356617
0.01067423933189
0.0093500727979954
0.0080490499642334
0.0067703061020406
0.0055202637700904
0.0042946884299995
0.0031145088724268
0.001974885888094
0.00096998190065791
0.068307788300376
0.067239020986654
0.065997260696689
0.064719047933022
0.063465033549776
0.062232948265939
0.06099874192157
0.059743026708431
0.058458091987185
0.057144900450303
0.055807803974905
0.054450478646642
0.05307423934703
0.051678578484073
0.050262693952658
0.048826521776057
0.047370737538973
0.045896261376904
0.044403942300101
0.042894561658162
0.041368956210513
0.039828098685821
0.03827311125343
0.036705304592879
0.035126179367264
0.033537337731921
0.031940566843324
0.03033790376901
0.028731536467485
0.027123651583846
0.025516454764891
0.023912063421915
0.022312559731673
0.020719815430408
0.019135677218624
0.017561734863393
0.015999650212133
0.01445083877594
0.012916872450347
0.011399184473178
0.0098992373488722
0.0084188157734172
0.0069588963251475
0.0055225149196202
0.0041089786241718
0.0027257326381407
0.0013681844275471
6.1751247585776e-05
-0.0011981311255795
-0.0022931968419382
0.070541751977553
0.069406882499095
0.068067514470557
0.066690596687348
0.065348044876027
0.064035060275007
0.06272165222592
0.061384579211374
0.060015104567948
0.05861481087668
0.057188972537317
0.055741705341516
0.054274192547873
0.052785536583013
0.051274601875977
0.049741156340816
0.048185805845569
0.046609397334291
0.045012663313079
0.043396248473104
0.041760856577423
0.040107345494476
0.038436750461307
0.036750258737789
0.03504929554917
0.033335555938969
0.031610902276279
0.029877363924908
0.028137214305425
0.026392810029744
0.024646549579482
0.022900710862908
0.021157569371869
0.019419139718109
0.017687469732555
0.015964248272962
0.014251370723182
0.012550312446095
0.010862967923896
0.0091908034207722
0.0075357423556959
0.0058995982303086
0.0042839354159717
0.002691933684801
0.0011234457886555
-0.00041322695311526
-0.0019225381515053
-0.0033744387013075
-0.0047721733206966
-0.0059700593944254
0.072895520624117
0.071692809381971
0.070251322998511
0.068771980576785
0.06733854677676
0.065942752749808
0.064547778541499
0.063126300409707
0.061668839739303
0.060177923072305
0.058659800429609
0.05711888584584
0.055556109929696
0.053970153185214
0.052359545764422
0.050723873242593
0.04906364359803
0.047379594991198
0.04567230143418
0.043942222671142
0.042189889427909
0.040415993982206
0.038621430573307
0.036807280117042
0.034974846099571
0.033125756637325
0.031261932439107
0.029385460331284
0.02749866750009
0.025604026100436
0.023704129299453
0.021801427002415
0.019898400764527
0.017997212187571
0.016100146808437
0.014208999021793
0.012325964699182
0.010452572871997
0.0085911678070342
0.0067432088955527
0.0049113111098418
0.0030972076944894
0.0013034383509851
-0.00046689950076287
-0.0022128163907296
-0.003925509224602
-0.0056084507161116
-0.0072271121738846
-0.0087817760271606
-0.010096110046119
0.075357497792965
0.074085558818596
0.072538060936137
0.070953585838242
0.069427997757501
0.067948297660275
0.066469963889495
0.064961561047475
0.063413271345934
0.06182888390895
0.060215633745728
0.058578059262236
0.056916702316864
0.0552297896904
0.053515526266748
0.051773308183056
0.050003511443872
0.048206714331507
0.046383277589021
0.044533422274655
0.042657449586737
0.040755840255351
0.038829283660588
0.03687868614937
0.034905215799832
0.032910367856868
0.030895999700156
0.028864216940735
0.026817412591829
0.024758151232806
0.022689193382043
0.020613155395188
0.018532740811254
0.016450263835301
0.014368279933798
0.012288702466011
0.01021410286302
0.008146068330448
0.0060875398602661
0.0040399405103604
0.0020068602691341
-1.0170649137554e-05
-0.0020071190736785
-0.003981289473019
-0.0059296839616236
-0.0078436099846771
-0.0097242183309183
-0.011533138004574
-0.013265186278941
-0.014710524139367
0.077915607224694
0.076573316485105
0.074916587387901
0.073225354021669
0.071607384284394
0.07004338488469
0.068480351047322
0.066882966075298
0.06524160428181
0.063561585195419
0.061851056276294
0.060114488399755
0.058351907500969
0.056561055401281
0.054739825768492
0.052887425764344
0.051004060665241
0.049090082059255
0.047145566423566
0.045170432079576
0.043164686138906
0.041128529950063
0.039062378613947
0.036966881812162
0.034842989182877
0.032691988758102
0.030515592455922
0.02831586568022
0.02609523327612
0.023856311709103
0.021601986559425
0.019335024639554
0.017058355009442
0.014774457251739
0.012486188242485
0.010195605479667
0.0079057310235665
0.005618242666342
0.0033368319315078
0.001062893146244
-0.0011987026291884
-0.0034467115523317
-0.0056750088021817
-0.0078816261081101
-0.010060436378695
-0.012203680379446
-0.014308238216981
-0.01633320328263
-0.018264244757619
-0.019855983064342
0.080557508593816
0.079143941751351
0.077375349809603
0.075576721870626
0.0738671505179
0.072219155848992
0.070570483080144
0.068882434139286
0.067146293066104
0.06536913660989
0.063559847807127
0.061722608210828
0.059856819251353
0.057959722243127
0.056028919092871
0.054063427945946
0.052063233484934
0.050028377480277
0.047958568748344
0.045853349638336
0.043712358701795
0.041535430587905
0.039322610702796
0.037074182996257
0.034790770315877
0.03247337369523
0.030123472786731
0.027742988655846
0.02533429042871
0.022899999961393
0.020443078573705
0.017966418874394
0.015473154685402
0.012965954749777
0.01044798901095
0.0079215233498895
0.0053900920741788
0.0028555494689425
0.00032248256100924
-0.0022076675923071
-0.0047284398626904
-0.0072388766816301
-0.0097301485166706
-0.012201223916111
-0.014641659792064
-0.017045384980345
-0.019402652846052
-0.021671807679639
-0.023824179483222
-0.025578317911547
0.083270613518884
0.081785111228962
0.079902733357974
0.077997004911814
0.076197387019581
0.074466198140702
0.07273128547423
0.070951259997122
0.069119132042302
0.067243929819614
0.06533501914873
0.063396038053423
0.061425674452449
0.059420688446414
0.057378426327354
0.055297705139083
0.05317821707938
0.051019594531156
0.048821081802303
0.046581758251395
0.044300805520309
0.04197758702047
0.039611660419359
0.037202809751423
0.034751206222895
0.03225744490588
0.029722650482275
0.027148472149182
0.024537097581874
0.02189107648478
0.019213368889743
0.016506966285703
0.013775149268893
0.011020821286716
0.0082474416435479
0.0054576168715113
0.0026554003025933
-0.00015695687083319
-0.002973894296706
-0.0057936823872982
-0.0086079999935337
-0.011416033426943
-0.014205603561783
-0.016976710503442
-0.019713418992793
-0.022411814895704
-0.025053373670759
-0.027597005123084
-0.029993765264685
-0.031926751408191
0.086042271521278
0.084484275745203
0.082487025487798
0.08047562072128
0.078588229099267
0.076774874699976
0.074953245253298
0.07308022434869
0.071151368476415
0.069177756460426
0.067168910248941
0.065127642231955
0.063051865226339
0.060937932158676
0.05878299515266
0.056585644709226
0.054345187299499
0.052060736611401
0.049730971269132
0.047354402872523
0.044929642555486
0.042455460945667
0.039930772731594