/*--------------------------------*- C++ -*----------------------------------*\
| =========                 |                                                 |
| \\      /  F ield         | OpenFOAM: The Open Source CFD Toolbox           |
|  \\    /   O peration     | Version:  2112                                  |
|   \\  /    A nd           | Website:  www.openfoam.com                      |
|    \\/     M anipulation  |                                                 |
\*---------------------------------------------------------------------------*/
FoamFile
{
    version     2.0;
    format      ascii;
    arch        "LSB;label=32;scalar=64";
    class       volVectorField;
    location    "5.7";
    object      U;
}
// * * * * * * * * * * * * * * * * * * * * * * * * * * * * * * * * * * * * * //

dimensions      [0 1 -1 0 0 0 0];

internalField   nonuniform List<vector> 
22000
(
(1.0000005679528 -2.7276799816588e-05 0)
(1.0000290565255 -8.8478779235233e-05 0)
(1.0000866627484 -0.00015188320259787 0)
(1.0001751815767 -0.00021659019234099 0)
(1.0002956908359 -0.00028276652587444 0)
(1.0004489735931 -0.00035066691417099 0)
(1.0006358082933 -0.00042066276878025 0)
(1.0008571986298 -0.00049343200510801 0)
(1.0011145733104 -0.00056977200077609 0)
(1.001409832819 -0.00065018261767662 0)
(1.0017450602866 -0.00073447926187804 0)
(1.0021221195621 -0.00082182136454489 0)
(1.0025422474336 -0.00091086812546831 0)
(1.0030059964544 -0.0010002499966011 0)
(1.0035131518142 -0.0010885997889254 0)
(1.0040630440258 -0.0011750240331102 0)
(1.0046544112521 -0.001258570334615 0)
(1.0052859375256 -0.0013390563467157 0)
(1.0059557512627 -0.0014156705187369 0)
(1.0066623939431 -0.0014890302423136 0)
(1.0074035950487 -0.0015578432183461 0)
(1.0081781474866 -0.0016239711241191 0)
(1.0089832917283 -0.0016844543922656 0)
(1.0098184241491 -0.0017438060822573 0)
(1.0106798953763 -0.0017950239266037 0)
(1.0115682713707 -0.0018489187156519 0)
(1.0124783410311 -0.0018891420359992 0)
(1.0134130016386 -0.0019411062011395 0)
(1.0143642903151 -0.0019665863425526 0)
(1.0153394503773 -0.0020242872739827 0)
(0.99999989858088 -7.9858989136691e-05 0)
(1.0000278614277 -0.00025945508943266 0)
(1.000084894818 -0.00044570087907191 0)
(1.0001726598769 -0.00063583950540356 0)
(1.0002922873152 -0.00083029266861074 0)
(1.0004446564218 -0.001029778603473 0)
(1.0006306020252 -0.0012354153030826 0)
(1.0008511690699 -0.001449279332329 0)
(1.0011078292336 -0.0016738285090131 0)
(1.0014025742296 -0.0019106336505593 0)
(1.0017375646128 -0.002159211160947 0)
(1.0021147941406 -0.0024170971376416 0)
(1.0025355538231 -0.0026803216865052 0)
(1.003000559608 -0.0029448105056173 0)
(1.0035095787723 -0.0032064999159439 0)
(1.0040621816657 -0.0034627151624714 0)
(1.0046569374481 -0.0037106292868787 0)
(1.0052929607141 -0.003949663495021 0)
(1.0059679035313 -0.0041774403579026 0)
(1.006681169354 -0.0043957217517839 0)
(1.0074293757136 -0.0046007709910969 0)
(1.0082130838671 -0.0047979341661394 0)
(1.009027122809 -0.0049786840457547 0)
(1.0098744861491 -0.0051559689924063 0)
(1.0107465189669 -0.0053096906213522 0)
(1.0116510402898 -0.0054708086232336 0)
(1.012572717435 -0.0055926127748635 0)
(1.0135290106317 -0.0057476645020268 0)
(1.0144917818177 -0.0058272328981484 0)
(1.015497532482 -0.0059982066642324 0)
(0.99999989185535 -0.00012926216722062 0)
(1.0000282809464 -0.0004206275930829 0)
(1.0000861338445 -0.00072298680180163 0)
(1.0001750014232 -0.0010317243265146 0)
(1.0002959236086 -0.0013474535187592 0)
(1.0004497237989 -0.0016713140283505 0)
(1.0006372044362 -0.0020051761518548 0)
(1.0008594340539 -0.0023525489004194 0)
(1.0011179242255 -0.0027175891191572 0)
(1.0014147615204 -0.00310299158548 0)
(1.0017521628493 -0.0035080542102103 0)
(1.0021322723946 -0.0039288140929705 0)
(1.0025564264603 -0.0043588148424629 0)
(1.0030255912607 -0.0047914379295496 0)
(1.0035395047251 -0.0052200440118328 0)
(1.0040981584916 -0.0056403008917079 0)
(1.0046998720136 -0.0060475437786073 0)
(1.0053445287266 -0.0064408894643066 0)
(1.0060290227611 -0.0068163387229303 0)
(1.006754266355 -0.0071769247087237 0)
(1.0075150332553 -0.007516280876393 0)
(1.0083149420985 -0.0078434981729503 0)
(1.0091447367512 -0.0081440439231214 0)
(1.0100136254799 -0.0084398951255495 0)
(1.0109043340101 -0.0086969015658327 0)
(1.0118372996912 -0.008967506149569 0)
(1.0127794219074 -0.0091726063809419 0)
(1.0137738925976 -0.0094348004947685 0)
(1.0147562768245 -0.0095706205934641 0)
(1.0158161682464 -0.009861174112209 0)
(0.99999986022067 -0.00017624368986911 0)
(1.0000285147972 -0.00057426311461605 0)
(1.0000869810555 -0.00098734700822196 0)
(1.0001767546723 -0.0014090653714841 0)
(1.0002987941008 -0.0018402191553259 0)
(1.0004538587512 -0.0022823614238454 0)
(1.0006427148571 -0.002738134077684 0)
(1.0008664683807 -0.0032125064940067 0)
(1.0011266832126 -0.0037113444929424 0)
(1.0014255750683 -0.0042384874135473 0)
(1.0017654353468 -0.0047930781004636 0)
(1.0021486146851 -0.0053698015103472 0)
(1.0025764986551 -0.0059599018247268 0)
(1.0030503958085 -0.0065544479724857 0)
(1.0035699877954 -0.0071443961951056 0)
(1.0041358627182 -0.0077239505379562 0)
(1.00474597923 -0.0082866576376248 0)
(1.0054013237362 -0.0088314894008931 0)
(1.0060977122796 -0.0093527209482859 0)
(1.0068382192151 -0.0098548821480044 0)
(1.0076150038265 -0.010328648678252 0)
(1.0084360390099 -0.010787325316781 0)
(1.0092863013672 -0.011209615734042 0)
(1.0101837927574 -0.011627576078128 0)
(1.0110991381169 -0.011991355042034 0)
(1.0120704996516 -0.012377179171958 0)
(1.0130400116161 -0.012670059637282 0)
(1.0140867390114 -0.013047502231654 0)
(1.0150960414474 -0.013244092459422 0)
(1.0162309143937 -0.013665190722782 0)
(0.99999981920392 -0.00022075507027281 0)
(1.0000286242623 -0.00072038377161804 0)
(1.0000875026393 -0.0012388966923968 0)
(1.0001779059753 -0.0017680157980258 0)
(1.0003007226767 -0.0023086898227024 0)
(1.0004566397335 -0.0028628711952255 0)
(1.000646354728 -0.0034340222350206 0)
(1.0008709873545 -0.0040286622060464 0)
(1.0011321399147 -0.0046544483123738 0)
(1.0014321796775 -0.0053164494811522 0)
(1.0017734883015 -0.0060137577937452 0)
(1.0021586835421 -0.0067398753564775 0)
(1.0025892158677 -0.0074839345238791 0)
(1.0030668404004 -0.0082349241466582 0)
(1.0035911711262 -0.008981551878968 0)
(1.0041635742036 -0.0097167577797164 0)
(1.0047815535687 -0.010432323303276 0)
(1.0054475264427 -0.011127261360736 0)
(1.0061559421547 -0.011793968002812 0)
(1.0069126579997 -0.012438766960143 0)
(1.0077065250143 -0.013048940344168 0)
(1.008551072531 -0.013642637648616 0)
(1.0094240139562 -0.014190792940513 0)
(1.0103544601877 -0.014736944320969 0)
(1.01129790453 -0.015213360188051 0)
(1.0123146612738 -0.015723115388715 0)
(1.0133161639757 -0.016110767920735 0)
(1.0144258215914 -0.016615186698528 0)
(1.0154673307001 -0.016879677396041 0)
(1.0166934276419 -0.017446994356596 0)
(0.99999977010607 -0.00026270190172042 0)
(1.000028574697 -0.00085876233660794 0)
(1.0000875702948 -0.001477274000897 0)
(1.0001781518738 -0.0021080620209053 0)
(1.000301120172 -0.0027521808674038 0)
(1.0004570657408 -0.0034119737011542 0)
(1.0006465904917 -0.0040917845818239 0)
(1.0008708177105 -0.004799788339134 0)
(1.0011313825629 -0.0055455303289262 0)
(1.0014308227391 -0.0063354066792529 0)
(1.0017716149557 -0.0071685713257817 0)
(1.0021566908021 -0.0080375246923524 0)
(1.0025875721721 -0.0089294837530547 0)
(1.0030665561111 -0.0098316080861279 0)
(1.0035931777459 -0.010730520394843 0)
(1.0041697558366 -0.011618119889136 0)
(1.0047932575323 -0.012484442688825 0)
(1.0054678456868 -0.013328762407906 0)
(1.0061863485552 -0.014141416391122 0)
(1.0069579871556 -0.01493088255501 0)
(1.0077676946185 -0.015680542717806 0)
(1.0086356398763 -0.016414146541839 0)
(1.0095309865453 -0.017093690793643 0)
(1.0104959557699 -0.017775845584273 0)
(1.011468393104 -0.018372480597228 0)
(1.0125344063675 -0.01901707015461 0)
(1.0135700341317 -0.019508491088208 0)
(1.0147496103154 -0.02015433633064 0)
(1.0158266375724 -0.020496085622686 0)
(1.0171555418345 -0.02122857771778 0)
(0.99999971429201 -0.00030195824342824 0)
(1.0000283013285 -0.00098902573915952 0)
(1.0000869845513 -0.0017018329283565 0)
(1.0001770779763 -0.0024282530087501 0)
(1.0002992674033 -0.0031693993232397 0)
(1.0004540233042 -0.0039279923143989 0)
(1.0006418279546 -0.0047093196954981 0)
(1.0008637968181 -0.005523324984487 0)
(1.0011215850998 -0.006381549847735 0)
(1.0014179087728 -0.0072918297319405 0)
(1.0017553332338 -0.0082535080774886 0)
(1.0021371378238 -0.0092582838736434 0)
(1.0025649136594 -0.010291672189659 0)
(1.0030415849282 -0.011339276634949 0)
(1.0035665971173 -0.012385812615538 0)
(1.0041433867512 -0.013422384625899 0)
(1.0047683142455 -0.014437306807624 0)
(1.0054475829049 -0.015430361784768 0)
(1.0061721828938 -0.016389633475948 0)
(1.0069552260627 -0.017326162529717 0)
(1.0077772191857 -0.01821887752543 0)
(1.0086659098071 -0.019097970314447 0)
(1.0095808801647 -0.019915234563787 0)
(1.010579092624 -0.020742271589593 0)
(1.0115788488359 -0.021467853408711 0)
(1.0126947769102 -0.022259649350611 0)
(1.0137642869997 -0.022865343057294 0)
(1.0150170495681 -0.023668947897745 0)
(1.0161311915433 -0.024099242336881 0)
(1.0175697893664 -0.025018069700969 0)
(0.99999965157465 -0.00033835884282188 0)
(1.0000277451292 -0.0011106413209734 0)
(1.0000855649086 -0.0019116362259744 0)
(1.000174313706 -0.0027272077670397 0)
(1.000294533306 -0.0035584777602866 0)
(1.0004465461325 -0.0044085289228305 0)
(1.0006306864531 -0.0052836565442284 0)
(1.00084804271 -0.0061956893364968 0)
(1.0011002684233 -0.0071582771978565 0)
(1.0013902541752 -0.0081808122307736 0)
(1.0017206407024 -0.0092629648897849 0)
(1.0020950801851 -0.010395847675618 0)
(1.002515227387 -0.011563505285166 0)
(1.0029847049417 -0.012750276754037 0)
(1.0035028587573 -0.013939165490987 0)
(1.0040743904518 -0.015120742900655 0)
(1.0046950007564 -0.016281637714786 0)
(1.0053731983057 -0.01742240839324 0)
(1.0060979647327 -0.018528691987898 0)
(1.0068867575534 -0.019614532948021 0)
(1.0077152697979 -0.020653836750387 0)
(1.0086195803899 -0.021684128021024 0)
(1.0095489623833 -0.022645706099027 0)
(1.0105762905297 -0.023626947203199 0)
(1.0115991501008 -0.0244908343136 0)
(1.012762340843 -0.025443002405743 0)
(1.0138630778407 -0.026174573324659 0)
(1.0151883089266 -0.027153408649873 0)
(1.0163393710435 -0.027685303980784 0)
(1.0178894047214 -0.028812949438927 0)
(0.99999958411715 -0.00037171603402331 0)
(1.0000268579763 -0.0012229855714708 0)
(1.000083159257 -0.0021055870243052 0)
(1.0001695468335 -0.0030033214322229 0)
(1.00028638541 -0.00391726680761 0)
(1.0004338176772 -0.0048508505507326 0)
(1.0006119994748 -0.0058114373969659 0)
(1.0008219672776 -0.0068128511817579 0)
(1.0010653473286 -0.0078709586087559 0)
(1.0013451870583 -0.0089968214462899 0)
(1.0016641817237 -0.010190582594715 0)
(1.0020263614422 -0.01144298992066 0)
(1.0024334424297 -0.012736871098397 0)
(1.0028897938071 -0.014055600916019 0)
(1.0033946707446 -0.015380696392766 0)
(1.0039541424383 -0.016702452863681 0)
(1.0045632382963 -0.018005890209837 0)
(1.0052329630009 -0.01929259330035 0)
(1.0059502028678 -0.020545602071889 0)
(1.0067370942087 -0.021782399512609 0)
(1.0075642904806 -0.022971322980887 0)
(1.0084767163277 -0.024158129481621 0)
(1.0094129712162 -0.025270371383233 0)
(1.0104624675658 -0.026414983454238 0)
(1.011501746852 -0.027426683030237 0)
(1.0127061930844 -0.028552480662108 0)
(1.0138331154484 -0.029422220583366 0)
(1.0152259557425 -0.030594075564774 0)
(1.0164119029616 -0.031242141220882 0)
(1.0180696400659 -0.032601298269716 0)
(0.99999951209664 -0.00040184383051293 0)
(1.0000256022663 -0.001325423756883 0)
(1.0000796493796 -0.002282568204094 0)
(1.0001625323847 -0.0032549669899229 0)
(1.0002744071876 -0.0042436000111239 0)
(1.0004152024803 -0.0052522177061428 0)
(1.0005848657056 -0.0062893094124305 0)
(1.0007843487498 -0.0073707897674481 0)
(1.001015225071 -0.0085148415503993 0)
(1.0012806622745 -0.0097342979534188 0)
(1.0015833940608 -0.011029927677158 0)
(1.0019277959452 -0.012392333937578 0)
(1.0023156675507 -0.013803406876687 0)
(1.0027521032554 -0.01524584922236 0)
(1.0032363519296 -0.016699965681056 0)
(1.0037758222221 -0.018155991141401 0)
(1.0043650226295 -0.019597510378979 0)
(1.0050174075034 -0.021027274785622 0)
(1.0057179553833 -0.022425750298868 0)
(1.0064934745289 -0.023814120033651 0)
(1.0073097149204 -0.025154809997455 0)
(1.0082205561393 -0.026502568065507 0)
(1.0091540152512 -0.027771095959722 0)
(1.0102160548322 -0.029087528593475 0)
(1.0112627481224 -0.030256200878138 0)
(1.0124991048435 -0.031568260982892 0)
(1.0136448432451 -0.032588732492205 0)
(1.0150962567209 -0.033970863983398 0)
(1.0163132106841 -0.034750928434183 0)
(1.0180692580836 -0.036363422687753 0)
(0.99999943766621 -0.00042857543197582 0)
(1.0000239521655 -0.0014173717907111 0)
(1.0000749514774 -0.0024415506594053 0)
(1.0001530998106 -0.0034806521242574 0)
(1.0002583121338 -0.0045355011221022 0)
(1.0003902687376 -0.0056101452964333 0)
(1.0005486804781 -0.0067142422958971 0)
(1.0007343747295 -0.0078658763324598 0)
(1.0009488483078 -0.0090856265485056 0)
(1.0011953313042 -0.010388186857689 0)
(1.0014765905681 -0.011775102842979 0)
(1.0017972692966 -0.013237052331953 0)
(1.0021593130366 -0.014755284377723 0)
(1.0025684242685 -0.016312110626574 0)
(1.0030240412723 -0.017886944147791 0)
(1.0035346796508 -0.019470110583005 0)
(1.0040947523863 -0.0210440810063 0)
(1.0047196875828 -0.022612682497561 0)
(1.0053933153244 -0.024154234862735 0)
(1.0061463175536 -0.025693320945025 0)
(1.0069406159974 -0.027186862067655 0)
(1.0078380851624 -0.028698586416864 0)
(1.0087572823683 -0.03012791253748 0)
(1.0098198081767 -0.031623480697736 0)
(1.01086267427 -0.032957315288252 0)
(1.0121184757707 -0.034467029867914 0)
(1.0132734974992 -0.035650783808774 0)
(1.0147701529095 -0.037258863168039 0)
(1.0160122993386 -0.038187649716295 0)
(1.0178515943887 -0.040073312566499 0)
(0.99999936108558 -0.00045177791534538 0)
(1.0000218952934 -0.0014983448259466 0)
(1.0000690238633 -0.0025816790762627 0)
(1.000141161892 -0.0036791437520436 0)
(1.000237955098 -0.0047913498229263 0)
(1.0003588039041 -0.0059226116172075 0)
(1.000503152904 -0.0070837840102055 0)
(1.0006716667545 -0.0082951793843374 0)
(1.0008657306903 -0.0095798280691199 0)
(1.0010885839996 -0.010954360692076 0)
(1.0013429929652 -0.012421236777189 0)
(1.0016338130272 -0.013971434003566 0)
(1.0019631315591 -0.015585844559418 0)
(1.0023372153406 -0.01724669804448 0)
(1.0027557385926 -0.018932793215797 0)
(1.003228268015 -0.020634783926292 0)
(1.0037492648776 -0.022334223427873 0)
(1.0043359615298 -0.024036111726846 0)
(1.0049714481352 -0.025716866581752 0)
(1.0056897157346 -0.027404289602157 0)
(1.0064499102566 -0.029050371172634 0)
(1.0073204897883 -0.030727183059711 0)
(1.0082126834444 -0.032320708538223 0)
(1.0092611842011 -0.034000696349477 0)
(1.0102873390407 -0.035506630214036 0)
(1.0115471926768 -0.037223814109316 0)
(1.0126998561812 -0.03858250192771 0)
(1.0142245786076 -0.040429715799005 0)
(1.0154842603032 -0.041524848662431 0)
(1.0173863873025 -0.043700458587792 0)
(0.99999928447561 -0.00047136205081761 0)
(1.0000194319006 -0.0015679938142704 0)
(1.0000618623272 -0.0027023359052546 0)
(1.0001267115754 -0.0038495598866366 0)
(1.0002133289915 -0.0050100025832417 0)
(1.0003208090297 -0.0061882088070968 0)
(1.0004483013043 -0.0073962443790352 0)
(1.0005962712462 -0.0086566833925101 0)
(1.000765949607 -0.0099950362282856 0)
(1.0009605325081 -0.011429924906934 0)
(1.001182734362 -0.01296484856884 0)
(1.0014375726896 -0.014591299507243 0)
(1.0017272399957 -0.016290096902855 0)
(1.0020585398679 -0.018043687356753 0)
(1.002431370514 -0.019830534857696 0)
(1.0028563412632 -0.021641861566869 0)
(1.0033279863667 -0.023458468928141 0)
(1.003865304605 -0.025286717818549 0)
(1.0044508075935 -0.027101182823206 0)
(1.0051215217422 -0.028933050252679 0)
(1.0058344827559 -0.030729483255221 0)
(1.0066636261473 -0.032570760088652 0)
(1.0075148612456 -0.034330154330926 0)
(1.008533028027 -0.036197415804218 0)
(1.0095282532824 -0.037881267876142 0)
(1.0107740957783 -0.039812969115812 0)
(1.0119110675021 -0.041356986847402 0)
(1.0134430814528 -0.04345391601815 0)
(1.014710827573 -0.044733224590303 0)
(1.016650308622 -0.047210942954278 0)
(0.99999920816291 -0.00048728933185529 0)
(1.0000165753382 -0.0016261292264061 0)
(1.0000535038256 -0.0028031829028236 0)
(1.0001098223568 -0.003991429461374 0)
(1.0001845628613 -0.0051908705620425 0)
(1.0002764916426 -0.0064062391497631 0)
(1.0003844379409 -0.0076508092966007 0)
(1.0005086338634 -0.0089494235957735 0)
(1.0006501106832 -0.010330074665748 0)
(1.000811965474 -0.011813407033383 0)
(1.0009968027194 -0.013404070011749 0)
(1.0012097433716 -0.015094271366169 0)
(1.0014530407126 -0.016865029709202 0)
(1.0017339870432 -0.018699299499613 0)
(1.002052694185 -0.020575471431968 0)
(1.0024207576679 -0.02248558957921 0)
(1.0028328385945 -0.024409822972312 0)
(1.003309577716 -0.026356163603558 0)
(1.003833110643 -0.028297250155359 0)
(1.0044431709096 -0.030268084902395 0)
(1.0050952629363 -0.032210705858464 0)
(1.0058678800012 -0.034214034711521 0)
(1.0066632483126 -0.036138753771224 0)
(1.007633704436 -0.038193897221647 0)
(1.0085826086351 -0.040059677903757 0)
(1.0097942903353 -0.042209669836847 0)
(1.0109009259193 -0.043948378175825 0)
(1.0124164159748 -0.046301847244344 0)
(1.0136810249959 -0.047782658679453 0)
(1.0156281164808 -0.050569439435665 0)
(0.99999913419411 -0.00049957438294284 0)
(1.0000133496444 -0.0016727328442417 0)
(1.0000440164295 -0.0028841816498669 0)
(1.0000906358559 -0.0041047190586713 0)
(1.0001519050565 -0.0053339513247708 0)
(1.0002262449086 -0.0065767531773786 0)
(1.0003121426451 -0.0078475882189955 0)
(1.0004095636547 -0.0091735464844376 0)
(1.0005192953067 -0.010585075934439 0)
(1.0006442771446 -0.012104849766717 0)
(1.0007869455078 -0.01373875862854 0)
(1.0009524554922 -0.015479911391623 0)
(1.0011430773894 -0.017309778493735 0)
(1.0013665169707 -0.019212104884162 0)
(1.0016230982479 -0.021165440989211 0)
(1.0019252953599 -0.023162911979325 0)
(1.0022679740855 -0.025184149458717 0)
(1.0026732237859 -0.027239037221837 0)
(1.0031230256598 -0.02929823515678 0)
(1.003659443883 -0.031400856199292 0)
(1.0042369942665 -0.033483748889081 0)
(1.004937822103 -0.035644631261287 0)
(1.0056620366252 -0.037731981081737 0)
(1.0065667668848 -0.039973231170853 0)
(1.0074532572384 -0.04202267929383 0)
(1.008609195313 -0.044391448102424 0)
(1.0096698904327 -0.046332792641523 0)
(1.0111426435071 -0.0489450463521 0)
(1.0123913195827 -0.050643995288735 0)
(1.0143131443037 -0.053741070310507 0)
(0.99999906264554 -0.00050828488762327 0)
(1.0000097895088 -0.0017079565244374 0)
(1.0000335024081 -0.0029455921089867 0)
(1.0000693579355 -0.0041898328515348 0)
(1.0001157069966 -0.0054398283648326 0)
(1.0001706150528 -0.0067005417899887 0)
(1.0002322140113 -0.0079875920910735 0)
(1.0003001722196 -0.00933027318421 0)
(1.0003749885761 -0.010761436562909 0)
(1.0004593821449 -0.012305767159431 0)
(1.0005555629399 -0.01397046489692 0)
(1.0006686427943 -0.015749705450229 0)
(1.0008008658344 -0.017625637396167 0)
(1.0009602596644 -0.019583059017729 0)
(1.0011473557566 -0.021600895375688 0)
(1.0013753762043 -0.023673579057271 0)
(1.001639459235 -0.025780332066693 0)
(1.0019629162037 -0.027933085625228 0)
(1.0023278090342 -0.030100638266965 0)
(1.0027780360921 -0.032326252562207 0)
(1.0032678492031 -0.034541855451448 0)
(1.0038817273809 -0.036853698866933 0)
(1.0045197896656 -0.039098976833412 0)
(1.0053404640928 -0.041521890366699 0)
(1.0061483431698 -0.043754641004439 0)
(1.0072261676758 -0.046339157690787 0)
(1.0082247308163 -0.048489276888804 0)
(1.0096269712918 -0.051357862029027 0)
(1.0108454868305 -0.053290560101306 0)
(1.0127072591986 -0.056692852869106 0)
(0.99999899577682 -0.00051353809362478 0)
(1.0000059362587 -0.001732123354213 0)
(1.0000220864913 -0.0029879600789598 0)
(1.0000462402507 -0.0042475762621249 0)
(1.0000763956197 -0.0055096209197384 0)
(1.0001102646951 -0.0067790898874923 0)
(1.0001456147787 -0.0080727012218324 0)
(1.0001817883736 -0.009421876517158 0)
(1.0002189576399 -0.010861789529018 0)
(1.0002595603689 -0.012419098815099 0)
(1.0003055234175 -0.01410236400993 0)
(1.0003618328575 -0.015906973747511 0)
(1.0004306588739 -0.017815960396988 0)
(1.0005202500006 -0.01981540438171 0)
(1.0006313302289 -0.021884812884997 0)
(1.0007777217084 -0.024020095179975 0)
(1.0009549052509 -0.026200233784866 0)
(1.0011871187503 -0.028439255632203 0)
(1.0014568401529 -0.030704346954158 0)
(1.0018090478743 -0.033042731997018 0)
(1.0021988286396 -0.035382035997172 0)
(1.0027110541 -0.03783616311667 0)
(1.0032487228944 -0.040232982272988 0)
(1.0039671433637 -0.042830211493328 0)
(1.0046806368202 -0.045244062197843 0)
(1.0056577269181 -0.048037714052297 0)
(1.0065778711812 -0.050400695078753 0)
(1.0078813473652 -0.0535186590424 0)
(1.0090540288019 -0.055699264514057 0)
(1.0108205364204 -0.059395366761142 0)
(0.99999893377201 -0.0005154988113909 0)
(1.0000018381145 -0.0017456935454521 0)
(1.0000099097555 -0.0030120814233337 0)
(1.0000215662873 -0.0042791450696649 0)
(1.0000344644383 -0.0055449619560152 0)
(1.0000459591536 -0.0068145000220311 0)
(1.0000534464529 -0.0081055197586842 0)
(1.0000559222363 -0.0094514828593516 0)
(1.0000531986614 -0.010889785136383 0)
(1.0000473739962 -0.012448993477349 0)
(1.0000400382182 -0.014139053194427 0)
(1.0000359708439 -0.015956678183376 0)
(1.0000372185159 -0.017885971520512 0)
(1.0000521448195 -0.019914481740702 0)
(1.000081645609 -0.022022504539151 0)
(1.0001399717993 -0.024207538775515 0)
(1.0002230335509 -0.026448527734012 0)
(1.0003556209904 -0.028761551629701 0)
(1.000521057059 -0.031112549612218 0)
(1.0007644584177 -0.033552252136837 0)
(1.0010430422232 -0.036005099728479 0)
(1.0014398699608 -0.038590813704695 0)
(1.001863862816 -0.041131447596346 0)
(1.0024626262203 -0.043892774989083 0)
(1.0030665860683 -0.046483720791376 0)
(1.0039208489355 -0.049476626900706 0)
(1.0047462828906 -0.052054202553653 0)
(1.0059233628276 -0.055410291781368 0)
(1.0070333767453 -0.057851371325102 0)
(1.0086699637208 -0.061823964538766 0)
(0.99999887626684 -0.00051436690164852 0)
(0.99999755073175 -0.0017492499971692 0)
(0.99999712274382 -0.0030189854330766 0)
(0.99999564692179 -0.0042860395167761 0)
(0.99999043747268 -0.0055478848363166 0)
(0.99997850222984 -0.0068094048511403 0)
(0.99995687389708 -0.0080893218597893 0)
(0.99992417908324 -0.0094230190099611 0)
(0.99987983906901 -0.010849997151739 0)
(0.9998255551245 -0.012400649453567 0)
(0.99976253180637 -0.014086326459083 0)
(0.99969526033223 -0.015905146927175 0)
(0.99962562007957 -0.017842455884789 0)
(0.99956197606036 -0.019887403396047 0)
(0.99950538153999 -0.022021275849362 0)
(0.99947032120337 -0.024243217497005 0)
(0.99945323672717 -0.026532353252777 0)
(0.99947905237648 -0.028906698400869 0)
(0.99953238447572 -0.031331400449064 0)
(0.99965750941319 -0.033860023998681 0)
(0.99981503404391 -0.036415310406774 0)
(1.0000840652864 -0.039120322877699 0)
(1.0003823190965 -0.041795671503122 0)
(1.0008453035772 -0.044708745371091 0)
(1.001325542218 -0.047470698668642 0)
(1.0020361285648 -0.050650202533218 0)
(1.0027506508302 -0.053441824409408 0)
(1.0037750483244 -0.057020427769689 0)
(1.0048048842153 -0.059732607369334 0)
(1.0062781187003 -0.063958902959315 0)
(0.9999988268426 -0.00051036940367602 0)
(0.99999311534919 -0.0017434981276552 0)
(0.99998387580646 -0.0030098579645335 0)
(0.9999687819488 -0.0042699981105343 0)
(0.99994482893496 -0.0055207491494228 0)
(0.99990870111632 -0.0067668455337011 0)
(0.99985707895781 -0.0080278888475075 0)
(0.99978819346609 -0.0093410401802133 0)
(0.99970104819712 -0.010747762725005 0)
(0.99959688315571 -0.0122801641776 0)
(0.99947648652281 -0.01395102236011 0)
(0.99934397485815 -0.015759904583157 0)
(0.99920103775073 -0.017693568508108 0)
(0.9990559056646 -0.019742831119836 0)
(0.99890979292383 -0.021890188012158 0)
(0.99877720003385 -0.024136401315036 0)
(0.99865519559953 -0.026461039962293 0)
(0.99856845004857 -0.028883850381457 0)
(0.99850320444547 -0.031369682578122 0)
(0.99850211372866 -0.033974227893557 0)
(0.99853008176222 -0.036619930569721 0)
(0.99866055896169 -0.039430996121497 0)
(0.99882237278602 -0.042230316126392 0)
(0.99913514554363 -0.04528159092529 0)
(0.99947869287285 -0.048206210559646 0)
(1.0000266682813 -0.051557659922106 0)
(1.0006146954827 -0.054560418021804 0)
(1.0014619165809 -0.058342631123959 0)
(1.0023939527693 -0.061333719790511 0)
(1.0036725271062 -0.065786247959208 0)
(0.9999987851827 -0.00050375208282848 0)
(0.99998858375355 -0.0017291738965608 0)
(0.99997030896476 -0.0029860003885542 0)
(0.99994125656519 -0.0042329300582976 0)
(0.9998981234007 -0.0054661202627684 0)
(0.99983729561814 -0.0066900978950674 0)
(0.99975514193051 -0.0079252742166504 0)
(0.99964948846296 -0.0092104488288988 0)
(0.99951890331747 -0.010588893333625 0)
(0.99936405813823 -0.012094269436291 0)
(0.99918530884804 -0.013740792922341 0)
(0.99898629150474 -0.015529470039054 0)
(0.99876854463915 -0.017448667305936 0)
(0.99853997333503 -0.019490838253329 0)
(0.99830202786838 -0.021639973675746 0)
(0.99806893117951 -0.023898270938997 0)
(0.99783852652317 -0.026246144755573 0)
(0.99763483782235 -0.028704680602547 0)
(0.99744594489181 -0.031239004526726 0)
(0.99731235816328 -0.033906290480275 0)
(0.99720367837142 -0.036629529924547 0)
(0.99718669425215 -0.039533140099484 0)
(0.99720269124997 -0.04244361665338 0)
(0.99735283302462 -0.045619371359369 0)
(0.99754784506182 -0.048695127578553 0)
(0.99791664440993 -0.052203677854504 0)
(0.99836357213673 -0.055410343762464 0)
(0.99901148106934 -0.059377170907452 0)
(0.9998286313383 -0.062649565321993 0)
(1.0008849667985 -0.067299404858225 0)
(0.99999874733232 -0.00049476880480699 0)
(0.99998397726977 -0.0017070435487041 0)
(0.99995652942917 -0.0029487317826424 0)
(0.99991332542541 -0.0041767771340356 0)
(0.99985078943577 -0.0053866467351905 0)
(0.99976502132306 -0.006582563120352 0)
(0.99965209711285 -0.0077856125309232 0)
(0.99950944340924 -0.0090360866121726 0)
(0.99933524112177 -0.010378996240533 0)
(0.99912947805646 -0.011849448992302 0)
(0.99889207687551 -0.013463098304238 0)
(0.99862601625874 -0.015222278225586 0)
(0.99833280607159 -0.017117171972014 0)
(0.99801972645663 -0.019141715626695 0)
(0.99768871744891 -0.021281798365468 0)
(0.99735319358903 -0.0235406125921 0)
(0.99701222674664 -0.025900132426126 0)
(0.9966884569003 -0.028381943418581 0)
(0.9963723842699 -0.030952456220715 0)
(0.99610157722797 -0.033669356787654 0)
(0.99585077314063 -0.036456786576012 0)
(0.99567946483801 -0.039439651282438 0)
(0.99554158774321 -0.042446308205056 0)
(0.99551937466063 -0.045733708356811 0)
(0.99555459039701 -0.048944026067507 0)
(0.99573108011903 -0.052597541488256 0)
(0.9960224753985 -0.055991119199272 0)
(0.99645253999012 -0.060129548187027 0)
(0.99713765353677 -0.063671053296586 0)
(0.99794688928449 -0.068491354444533 0)
(0.99999871220209 -0.00048375050527212 0)
(0.99997936304245 -0.0016780284334082 0)
(0.99994267122865 -0.0028994620277733 0)
(0.99988521411237 -0.0041034424978097 0)
(0.99980323138934 -0.0052848736135772 0)
(0.99969263306343 -0.0064476337786943 0)
(0.99954918283607 -0.0076132154176995 0)
(0.99936974846606 -0.0088229671207163 0)
(0.99915208490443 -0.010123484104245 0)
(0.99889547729529 -0.01155139758888 0)
(0.99859956670818 -0.013123963473439 0)
(0.99826648764244 -0.014844749310301 0)
(0.99789786253675 -0.016705932813364 0)
(0.99749993139482 -0.018702667856685 0)
(0.99707558936536 -0.020823225944947 0)
(0.99663657002662 -0.023071101852376 0)
(0.99618418887861 -0.025430944835179 0)
(0.99573811735748 -0.027923281422246 0)
(0.99529307285369 -0.030517871492155 0)
(0.99488133748451 -0.03327041423246 0)
(0.99448500021956 -0.036108692698744 0)
(0.99415420015772 -0.039156509858284 0)
(0.99385616042999 -0.04224356427509 0)
(0.99365545883664 -0.045630162795806 0)
(0.99351972172336 -0.048953994971581 0)
(0.99349715412977 -0.052746361421181 0)
(0.99361623454023 -0.056294241265759 0)
(0.99381947648603 -0.060613190977796 0)
(0.99435529535791 -0.06437455213842 0)
(0.99488757709735 -0.06937242203345 0)
(0.99999868223242 -0.00047127205696838 0)
(0.99997500475452 -0.0016438022892077 0)
(0.99992923654247 -0.0028406438710525 0)
(0.99985746371465 -0.0040158179529142 0)
(0.99975587824041 -0.005163984592229 0)
(0.99962056331923 -0.0062888887442444 0)
(0.9994472762662 -0.0074124121408678 0)
(0.99923214664311 -0.0085765251809199 0)
(0.9989719614992 -0.0098288076102303 0)
(0.99866505846674 -0.011207138111714 0)
(0.99831104852907 -0.01273049024943 0)
(0.99791133134454 -0.014403838528185 0)
(0.99746778116869 -0.016221623366055 0)
(0.99698529837841 -0.018180047494328 0)
(0.99646808511169 -0.020270227259421 0)
(0.9959253781675 -0.022495378044627 0)
(0.99536185962128 -0.024844137093476 0)
(0.99479228269425 -0.02733407313124 0)
(0.99421828613896 -0.029941634572785 0)
(0.99366280490108 -0.032715695522994 0)
(0.99312015253773 -0.03559481577434 0)
(0.9926253675093 -0.038692625889679 0)
(0.99216386711223 -0.04185137763605 0)
(0.99178048445435 -0.045324959066756 0)
(0.9914643157484 -0.048750587658954 0)
(0.99124251984555 -0.05268620107403 0)
(0.99116716477286 -0.056348947931996 0)
(0.99115066012542 -0.060919181910931 0)
(0.99151591520134 -0.064757874186044 0)
(0.99175695214689 -0.070208060666387 0)
(0.99999868791295 -0.00045846015697636 0)
(0.99997078411492 -0.0016082617283509 0)
(0.99991645126591 -0.0027797388080013 0)
(0.99983066756543 -0.0039251827413231 0)
(0.99970940229847 -0.0050387293194346 0)
(0.99954915435904 -0.0061239701864001 0)
(0.99934614619356 -0.007202949083411 0)
(0.99909622215576 -0.008319323467857 0)
(0.99879501380295 -0.0095225438146699 0)
(0.99843945544908 -0.010851640807257 0)
(0.998028762114 -0.012326873088658 0)
(0.99756371281282 -0.013954403719306 0)
(0.9970464644824 -0.015730889918135 0)
(0.99648081929418 -0.017653370836378 0)
(0.99587195408634 -0.019715993701889 0)