/*--------------------------------*- C++ -*----------------------------------*\
| =========                 |                                                 |
| \\      /  F ield         | OpenFOAM: The Open Source CFD Toolbox           |
|  \\    /   O peration     | Version:  2112                                  |
|   \\  /    A nd           | Website:  www.openfoam.com                      |
|    \\/     M anipulation  |                                                 |
\*---------------------------------------------------------------------------*/
FoamFile
{
    version     2.0;
    format      ascii;
    arch        "LSB;label=32;scalar=64";
    class       volScalarField;
    location    "12";
    object      p;
}
// * * * * * * * * * * * * * * * * * * * * * * * * * * * * * * * * * * * * * //

dimensions      [0 2 -2 0 0 0 0];

internalField   nonuniform List<scalar> 
22000
(
0.025217566101332
0.025195763771865
0.025150844506624
0.025081624944504
0.024987586429713
0.024868772793586
0.024725467073758
0.024557959717828
0.024366477538325
0.024151206930814
0.02391233101684
0.023650056629554
0.02336462281147
0.023056305825278
0.022725409297823
0.022372270271267
0.021997245230031
0.021600731805437
0.021183139600362
0.020744936994973
0.020286583304458
0.019808633744876
0.019311583862409
0.018796103717668
0.018262686247008
0.017712177644205
0.017144983168129
0.016562251106293
0.01596408571881
0.015352188012215
0.025624930180736
0.025601946346128
0.025555536600545
0.025484624422063
0.025388656095915
0.025267608160349
0.025121712337608
0.024951229628309
0.024756370872496
0.024537311155762
0.024294221021881
0.024027294128085
0.02373675502566
0.023422867428429
0.023085920348044
0.022726239936143
0.02234416701137
0.021940091751077
0.021514405870296
0.021067577702768
0.020600043562538
0.020112373440963
0.019605024068071
0.019078710519072
0.018533846934851
0.017971381989372
0.017391547107699
0.016795688169211
0.016183498825861
0.015557000804669
0.026372253177225
0.026348434634611
0.02630042814289
0.026227217876039
0.026128284845572
0.026003601104744
0.025853373077351
0.0256778343063
0.025477171202369
0.025251536843241
0.025001078829103
0.024725967905606
0.024426402393269
0.024102621341556
0.02375488475345
0.02338349619404
0.022988765676164
0.022571067161144
0.02213075803383
0.021668304115999
0.02118409762323
0.020678734283791
0.020152598668452
0.019606493762755
0.019040691259955
0.01845635600119
0.017853412014629
0.017233658401727
0.016596050310009
0.015943393159336
0.027411505820692
0.027386792870672
0.027336984074534
0.027261038455284
0.027158427612177
0.027029118009029
0.026873302859165
0.026691193542376
0.026482946578529
0.026248681319825
0.025988508054471
0.025702560469071
0.025390995665231
0.02505401388524
0.024691829444152
0.024304708724713
0.023892911887587
0.023456783545755
0.022996624909672
0.022512891262002
0.022005903676419
0.021476288521535
0.020924318529967
0.020350916150999
0.019756136748048
0.019141444891701
0.01850629928629
0.017853121391905
0.017179751481769
0.016490070161135
0.028701006590895
0.028675303450541
0.028623489974675
0.028544484489933
0.028437733153141
0.028303185898703
0.028141014786497
0.027951400749213
0.027734459299073
0.027490262009412
0.027218864964009
0.026920346933791
0.026594804099194
0.026242378466777
0.025863216376388
0.025457526617881
0.025025494293347
0.024567415141214
0.024083505466682
0.023574194883358
0.023039698340202
0.022480668897959
0.021897218185472
0.021290409291756
0.020659997260262
0.020007821805158
0.019332717642996
0.018637907486449
0.017919779920314
0.017183644746632
0.030203947310603
0.03017722915894
0.030123357240782
0.030041206787745
0.029930192200554
0.02979023661366
0.02962147793253
0.029424052231575
0.029198017952529
0.028943381170013
0.02866012368656
0.028348247996192
0.028007765418177
0.02763873540696
0.027241208645049
0.026815310160941
0.026361118533398
0.025878854408382
0.025368613163735
0.024830775902485
0.024265408390163
0.02367317799744
0.023053977218738
0.022409024016295
0.02173768302701
0.021042238348343
0.020320739001351
0.019577381700667
0.018806761159244
0.018015940612848
0.031887106838264
0.031859435256355
0.031803624882034
0.031718506866278
0.031603458377448
0.031458365664676
0.031283318399955
0.031078391332819
0.030843567327763
0.030578766754206
0.030283874412975
0.029958792116735
0.029603418751887
0.029217702663361
0.028801566293153
0.028355019212464
0.027877995812351
0.02737060860493
0.026832788533964
0.026264837332612
0.025666619683734
0.025038796128003
0.024380972861107
0.023694525765157
0.022978327613772
0.022235164160307
0.021462124812105
0.020664532926115
0.019834832797122
0.018982126752171
0.033719823006078
0.033691343938282
0.033633883784711
0.033546230966938
0.033427720895979
0.03327819263946
0.033097672838182
0.032886157411486
0.032643533869124
0.032369615113228
0.032064164294715
0.031726955761
0.031357745488116
0.030956338635513
0.030522492625821
0.030056064946933
0.029556802449394
0.029024669926415
0.028459383002063
0.027861124733217
0.027229497797417
0.026565123939589
0.025867244428438
0.025137384636783
0.024373812916562
0.02357985722762
0.022751462139307
0.021895209376221
0.021001026252346
0.020080298647156
0.035673355436502
0.035644293139503
0.035585630556997
0.03549611685625
0.035375041949191
0.035222187359103
0.035037501517618
0.034820883717531
0.034572106088504
0.034290851894644
0.033976737272916
0.033629381137672
0.033248364407606
0.032833314659856
0.032383784602426
0.031899439199565
0.031379789907713
0.030824608519182
0.03023333805148
0.029605995607901
0.028941852125184
0.028241448063549
0.027503570997656
0.026729871512957
0.025917889000479
0.025071517044783
0.024185362327326
0.023267370518363
0.022304580951512
0.021310848638143
0.037720559170311
0.037691208798611
0.037631934312046
0.037541451371554
0.037419001646194
0.037264299106884
0.037077199335142
0.036857487980924
0.036604802743737
0.036318675977247
0.035998552188782
0.035643867200508
0.03525399473253
0.034828349647514
0.034366239144992
0.033867092953694
0.033330136684482
0.032754899553357
0.032140490218225
0.03148670570559
0.030792409084454
0.030058006219464
0.029281732992695
0.02846532504608
0.027605459454943
0.026706588520773
0.025761781330463
0.024780418915929
0.023746282406672
0.022675826809285
0.039835776835715
0.039806494097004
0.039747321143135
0.0396569466001
0.039534562104946
0.039379805542756
0.039192426945862
0.038972083516794
0.03871826184489
0.038430324312863
0.038107521479629
0.037749080288824
0.037354137109235
0.036921859967702
0.036451271017884
0.035941521386441
0.035391500433543
0.034800442060888
0.034167057357157
0.033490862775617
0.03277023463781
0.032005380493079
0.031193886303623
0.030337512002984
0.02943194349958
0.028482146536439
0.027479456573283
0.026434675310458
0.025327952222074
0.024178362122678
0.041994875112241
0.041966063048708
0.041907803854518
0.041818763820808
0.041698082693114
0.041545316054777
0.041360099328102
0.041141950255188
0.040890191541711
0.040604000200003
0.040282414518602
0.039924430218978
0.039528920335527
0.039094774639434
0.03862069485014
0.038105510906597
0.037547729437789
0.036946233611219
0.036299277291258
0.035606027656323
0.034864299309379
0.034074019310952
0.03323203697167
0.032340033582672
0.03139263659265
0.030395164419088
0.029337221033056
0.028230748433825
0.027052162165343
0.025822603337948
0.044175382823303
0.0441474733584
0.044091003785468
0.044004624279647
0.043887421919174
0.043738865683024
0.043558470621997
0.043345608073192
0.043099428867872
0.042818914298492
0.042502877805245
0.042150066958057
0.041759071678334
0.041328476936949
0.040856635110837
0.040342015669475
0.03978270284619
0.039177173314075
0.038523172482908
0.03781944013693
0.037063171001219
0.036253893374533
0.035387683828844
0.03446593054669
0.033482268395958
0.032441970944572
0.031333175351052
0.030168421362868
0.028920766803972
0.027612804703517
0.046356657103146
0.046330097394747
0.046276319166645
0.04619397055983
0.046082090368203
0.045940059571186
0.045767270338463
0.045562945086663
0.045326059499312
0.045055394160106
0.044749531168451
0.044406960549814
0.044025976624545
0.04360484151029
0.043141536271722
0.042634139142381
0.04208027875946
0.041477975858199
0.040824424053581
0.040117857200769
0.039354801163459
0.038534266688495
0.037651498052209
0.036707442881954
0.035694636118239
0.034618159989492
0.033464556348529
0.032246665863688
0.030934775665657
0.029552073485381
0.048520022960297
0.048495258352712
0.048445069768142
0.04836812122746
0.04826341204172
0.048130237299022
0.047967867148568
0.047775377109493
0.047551570563143
0.047295029983856
0.047004106815926
0.046677031653447
0.046311798438173
0.045906338639528
0.045458248729386
0.044965197313435
0.044424330252367
0.043833179707563
0.043188340747361
0.042487492342908
0.041726415799636
0.040903541390114
0.04001316117372
0.039055714439148
0.038022449175884
0.036918204125626
0.035727638552271
0.034463904192066
0.033093905270439
0.031641505127787
0.050648903927516
0.050626363636546
0.050580632362973
0.050510409777079
0.050414667276538
0.050292619988359
0.050143421137869
0.049966006116593
0.049759014517395
0.049520840107916
0.049249612750331
0.048943311421991
0.04859963437079
0.048216184026298
0.047790169822362
0.04731884426789
0.046798856037718
0.04622722824001
0.045599924356537
0.044914029179259
0.044164519135636
0.043349182955568
0.042461260284345
0.041500605063036
0.040457023814185
0.039335022410617
0.038117133862781
0.036816692323674
0.035396731505506
0.033881379742467
0.052728911451481
0.052708996164507
0.052668533816781
0.052606281015886
0.052521195375409
0.052412420899838
0.052279002842837
0.052119748066496
0.051933146653971
0.051717419846782
0.051470492700838
0.051190108987595
0.050873686393493
0.050518511636897
0.050121416191351
0.049679242212484
0.049188140567307
0.04864461998981
0.048043994585943
0.047382732071077
0.046654958534931
0.045857773846031
0.044983276866631
0.044030660331993
0.042988143041586
0.041859812167652
0.040625842714378
0.039299639739372
0.037839835407726
0.036270317311139
0.054747879199586
0.054730950017826
0.054696490849777
0.054643337127548
0.054570447650223
0.054476906975674
0.054361665782929
0.054223418850837
0.054060526249389
0.053871058391181
0.053652759182895
0.053403161564547
0.053119427389378
0.052798551450554
0.052437009667916
0.052031252989327
0.051576948327749
0.051070100029454
0.050505372651421
0.049878612455384
0.049183069676401
0.04841512899758
0.047565677863097
0.046633185929153
0.045604130508725
0.044482088280242
0.043244621536289
0.041905182123928
0.040417482145441
0.038804696042944
0.056695839603569
0.0566822110353
0.056654395196249
0.056611329032663
0.056551988926643
0.056475413294156
0.056380474890563
0.056265777086112
0.056129574597746
0.055969813854884
0.055784087781085
0.055569749283197
0.055323738018515
0.055042789002435
0.054723057370183
0.0543606335073
0.053950732161981
0.053488876686475
0.052969102724304
0.052386646185913
0.051733880485751
0.051006469813181
0.05019405335227
0.049294352057726
0.048291971093448
0.047189885511321
0.04596267745695
0.044623754577726
0.04312142304094
0.041478014783403
0.058564941261911
0.058554881091284
0.058534249758078
0.058502103446531
0.058457453291789
0.05839931085625
0.058326492609394
0.058237532501579
0.058130606354332
0.058003566205699
0.057853890604893
0.057678788695673
0.057475021326299
0.057239102293268
0.056966915080191
0.05665422628214
0.056295851073987
0.05588686200349
0.055420717900665
0.054892058726891
0.05429242057619
0.053616736653673
0.052853411329316
0.051999403697858
0.051037429162866
0.049969874528093
0.048767968329335
0.047444844464483
0.045941999724858
0.044281279843879
0.060349306663355
0.06034303904711
0.060330043960036
0.060309501725412
0.060280468344664
0.060241949619767
0.060192735009468
0.060131318292661
0.060055828030413
0.059964052735057
0.059853395842462
0.059720957647998
0.059563369516372
0.059376964127088
0.059157421059775
0.058900222413576
0.058599868747357
0.058251004406845
0.057846617598805
0.057380741181963
0.05684420523709
0.056231139013176
0.055528846403021
0.054733371665879
0.053825678815395
0.05280758117001
0.051647205499927
0.050357492244792
0.048871323807625
0.047206400052153
0.062044870229059
0.062042544922577
0.06203752154651
0.062029117572676
0.062016445766306
0.061998508968323
0.061974076810402
0.061941627025739
0.06189928247941
0.061844813711626
0.061775603306214
0.061688682521627
0.061580605912397
0.061447555085976
0.061285079405641
0.061088401148444
0.060851827912303
0.060569573332359
0.060234349158724
0.059839492610511
0.059375444856184
0.058835277978405
0.058205686546241
0.05748124998343
0.056641702102314
0.055687491058779
0.054584297720408
0.053346185696548
0.051897883132616
0.050252577400497
0.063649287663599
0.063650897102744
0.063653935408707
0.063657907131013
0.0636620453893
0.063665366740779
0.06366660582483
0.063664211332083
0.063656303768251
0.063640659886166
0.063614692061169
0.063575415142355
0.063519386487665
0.063442688249391
0.06334082658134
0.063208767432977
0.063040746846883
0.062830481482521
0.06257066106669
0.062253696092047
0.061870194702934
0.061411525122471
0.060864990268813
0.060222171877349
0.059463889344701
0.058585622720929
0.057553337310419
0.056376634782926
0.054979349405042
0.053379450647162
0.06516199278909
0.065167284818886
0.065178077303025
0.065194212261331
0.065215029331562
0.06523954839848
0.065266577035349
0.065294595527555
0.065321731905843
0.065345768255504
0.065364119324235
0.065373748358426
0.065371214415803
0.065352536302357
0.065313267399769
0.065248192461506
0.065151604519644
0.065016697513895
0.064836316442713
0.064601660992199
0.064304005650863
0.063932059446912
0.063475353539443
0.062919685428016
0.062252066991453
0.061455201566876
0.060507784909858
0.059389460620381
0.058041228761053
0.056451378838426
0.06658463270793
0.066593312115704
0.066611156140945
0.06663903326948
0.066676205291114
0.066721188119533
0.066773074265974
0.066830497476111
0.066891823160178
0.066955081963449
0.067017808284353
0.067076917725366
0.067128851210068
0.067169413071143
0.067194085543655
0.067197538844285
0.067174291518624
0.067117338523553
0.067019916040914
0.066872244780296
0.066666388074042
0.066388298990322
0.066030245176063
0.065571050292663
0.065007038291783
0.064303128537347
0.063467044242667
0.062429109396421
0.061189717218874
0.05951910447958
0.014764654721118
0.014204308814996
0.013633786148317
0.013054194041845
0.012466479488845
0.011871386540952
0.011269544237107
0.010661578843459
0.010048167190908
0.0094300269005862
0.0088078936490293
0.008182512202023
0.007554633708837
0.0069250103240315
0.0062943926146034
0.0056635303357598
0.0050331719856256
0.0044040617554352
0.0037769363356662
0.0031525223874519
0.0025315353346939
0.0019146797641308
0.0013026521899101
0.00069614913778099
9.5869765905301e-05
-0.00049756784018589
-0.0010837981904149
-0.0016622996187909
-0.0022324865376052
-0.0027938000251481
-0.0033457426665991
-0.003887877035602
-0.0044198160692876
-0.0049412102649934
-0.0054517460505533
-0.0059511407150604
-0.0064391533822466
-0.0069155742878309
-0.007380243370754
-0.007833021978506
-0.0082738334080527
-0.0087026015468946
-0.0091193399670993
-0.0095240168345659
-0.0099167539039478
-0.010297531364839
-0.010666629123088
-0.011023988051218
-0.011370181069711
-0.011705139929103
0.014958119909432
0.014389595802658
0.01380966883052
0.013220495303166
0.012623418347366
0.012019079225903
0.011407831943774
0.010790105670785
0.010166507804981
0.0095377492150517
0.0089045709746307
0.0082677259345768
0.0076279759167984
0.0069860852449688
0.0063428209268135
0.0056989584240409
0.0050552830402574
0.0044125845599057
0.0037716516746194
0.0031332683440899
0.0024982104740979
0.0018672391025194
0.0012410893307363
0.00062045074035769
5.9507213820954e-06
-0.00060176065917146
-0.0012018012081004
-0.0017935079310939
-0.0023763324030195
-0.0029497584630152
-0.0035132846357192
-0.0040664296754629
-0.0046087463713474
-0.0051398245117548
-0.0056593014419652
-0.0061668526003883
-0.0066622061724091
-0.0071451201856656
-0.0076154165553624
-0.0080729302787253
-0.0085175838382911
-0.008949273377641
-0.009368036072606
-0.0097737958785695
-0.010166737954731
-0.010546739592963
-0.010914204502532
-0.011268781038006
-0.011611173481576
-0.011940259871253
0.015321129818068
0.014730538243321
0.014125744030593
0.013511301603953
0.012889615418867
0.012261295533783
0.011626259465246
0.010984628744875
0.0103369487633
0.0096839860342601
0.0090265470928255
0.0083654384365343
0.0077014653454404
0.0070354236459395
0.0063681067540586
0.005700322922326
0.0050328992586088
0.0043666711337153
0.0037024722140123
0.0030411302201375
0.0023834643634187
0.00173028200886
0.00108237712713
0.00044053552630021
-0.00019445444914431
-0.00082181486015776
-0.0014408735815112
-0.0020509650976087
-0.0026514582567219
-0.0032417600635433
-0.0038213140198708
-0.0043895972326515
-0.0049461300892535
-0.0054904733604039
-0.0060222420264217
-0.006541088765384
-0.0070467297542853
-0.0075389053740468
-0.0080174385141625
-0.0084821463605404
-0.0089329718139733
-0.0093697828817827
-0.0097926722978995
-0.010201500596626
-0.010596578564231
-0.010977620059882
-0.011345285788656
-0.011698745346151
-0.01203904996658
-0.012363224367368
0.015833055699817
0.015207504969337
0.01456390624613
0.013910623583998
0.013251636714388
0.012587430749691
0.011917215751504
0.011240631482534
0.010558125455404
0.0098705426787391
0.0091787734624615
0.0084836796941966
0.0077861014473121
0.0070868506685798
0.0063867288756795
0.0056865607172665
0.0049872026214557
0.0042895256032473
0.0035944004753899
0.0029026945867491
0.0022152716297453
0.0015329882662858
0.00085668924444802
0.00018720134117603
-0.00047467601790376
-0.0011281767513273
-0.0017725432862152
-0.0024070596741392
-0.0030310478608909
-0.0036438654571287
-0.0042449121193082
-0.0048336275683447
-0.0054095014669662
-0.0059720638290324
-0.0065209038012211
-0.0070556447001032
-0.0075759838389914
-0.0080816330781805
-0.0085724084914443
-0.0090480943225539
-0.0095086479758174
-0.0099538875832857
-0.010383963010166
-0.010798633788643
-0.011198355281431
-0.011582593339224
-0.011952310206616
-0.012305945335399
-0.012644884916882
-0.012963296673766
0.016482180510555
0.015810404510841
0.015115568648072
0.014411297713528
0.013703644314152
0.012992837336634
0.012277085142404
0.011555368001957
0.010828009425092
0.010095969785775
0.0093602521138313
0.008621782742874
0.0078814354182629
0.0071400321450184
0.0063983753736839
0.0056573022278817
0.0049176982477382
0.0041804711106355
0.0034465286990882
0.0027167757810798
0.0019921150876702
0.0012734430974479
0.00056164374532534
-0.00014241571310192
-0.00083788795204679
-0.0015239492520727
-0.0021998038545142
-0.0028646867544791
-0.0035178704538342
-0.0041586655721498
-0.0047864284339728
-0.0054005566790411
-0.0060005013460958
-0.006585753057501
-0.0071558668995233
-0.0077104280246053
-0.0082491061637411
-0.0087715746485757
-0.0092776341197775
-0.009767024596711
-0.010239710457536
-0.010695444112153
-0.011134428435481
-0.011556294577236
-0.011961650199447
-0.012349653047637
-0.012721605836262
-0.013075047577653
-0.013411742284446
-0.013722285382032
0.017261478305346
0.016533039340043
0.015775138662464
0.015008276813292
0.01424111846749
0.013473485815092
0.012702271525099
0.011925617892541
0.011143710839426
0.010357678278581
0.0095686760438298
0.0087777092461523
0.0079856868464335
0.0071934383931925
0.0064017642518086
0.0056115133738307
0.0048236027700212
0.004038979618125
0.0032585904047996
0.0024833781383128
0.0017142861021371
0.0009522540942124
0.00019821193033669
-0.00054692419107519
-0.0012822553369577
-0.0020069077234313
-0.0027200386894141
-0.0034208350452669
-0.0041085202202308
-0.0047823553836957
-0.0054416486979233
-0.0060857498649186
-0.0067140646477225
-0.0073260374476865
-0.0079211813629854
-0.0084990359719395
-0.0090592346970342
-0.0096014039887594
-0.010125318226036
-0.010630663173162
-0.011117397203657
-0.011585194449719
-0.012034297661685
-0.012464189601322
-0.012875627517547
-0.013267411294932
-0.013641220291186
-0.013993532647453
-0.014326523325704
-0.014626568739447
0.018167030155658
0.017371976702666
0.016539462113926
0.015698704510857
0.014861560924151
0.014027249954154
0.013190990928121
0.01234989576408
0.011504006474746
0.010654683225496
0.0098032815370367
0.0089509003587754
0.0080984842581489
0.0072468669089493
0.0063968437839096
0.0055492763095227
0.0047051166141367
0.0038653557683587
0.00303098251717
0.0022029811639894
0.0013823389078127
0.00057004268639805
-0.00023292837026699
-0.001025607187766
-0.0018070431089719
-0.0025763102269
-0.0033325100070896
-0.0040747743048189
-0.0048022719118412
-0.005514208800969
-0.0062098380578847
-0.0068884540855692
-0.0075494080919287
-0.008192089240166
-0.0088159576917429
-0.0094204970698641
-0.010005290295032
-0.010569905029821
-0.011114071350617
-0.011637408147436
-0.012139845235086
-0.012620965772738
-0.013081027704286
-0.013519343207544
-0.01393680938149
-0.014331776028996
-0.014706370960192
-0.015055622926432
-0.015382275268649
-0.015667563616914
0.019197844384525
0.018326564713333
0.017407967797681
0.016482119591097
0.015564706115922
0.014654086670455
0.013743391295385
0.01282848962605
0.011909280978659
0.010987436980586
0.010064569565843
0.0091418883491531
0.0082203715577426
0.0073008531449063
0.006384122997577
0.0054710581599819
0.0045626520419954
0.0036599461055995
0.002763976603661
0.0018757737847581
0.00099637341433311
0.00012681428809333
-0.00073187024833409
-0.0015786568514505
-0.0024125364085098
-0.0032325231040568
-0.0040376555867988
-0.004827002698723
-0.0055996698742322
-0.0063547996869867
-0.0070915807583194
-0.0078092426583159
-0.0085070708651046
-0.0091843884125221
-0.0098405883191868
-0.010475085836976
-0.011087396073339
-0.011677013972943
-0.01224360199984
-0.012786697615943
-0.013306168566901
-0.013801493061609
-0.014272897905845
-0.014719509272985
-0.015142335888789
-0.015539227794554
-0.015912971493109
-0.016256750699525
-0.01657519692824
-0.016842817595293
0.020355258063549
0.019398354154402
0.018382119476761
0.017359946761823
0.016352043436155
0.015355575946688
0.014361105889402
0.013363035655764
0.012361136000006
0.011357484167094
0.010354012617419
0.0093520599247532
0.0083526355071613
0.007356568869357
0.0063646445170539
0.0053777613154026
0.0043969629498759
0.0034233499692141
0.0024580134360802
0.0015020357589968
0.00055650755116983
-0.0003774736787864
-0.0012988128974679
-0.0022064224960602
-0.0030992263291825
-0.0039761700766934
-0.0048362206565548
-0.0056783749402176
-0.0065016651373069
-0.0073051601822574
-0.0080879729070142
-0.0088492572264075
-0.0095882195447461
-0.01030410434889
-0.010996222492786
-0.011663907051205
-0.012306587294868
-0.01292367218829
-0.013514735268841
-0.014079225284497
-0.014616917761287
-0.015127197914167
-0.01561019905241
-0.016064925876006
-0.016492270394968
-0.016889893142352
-0.017260201145367
-0.017596316353253
-0.017901878741575
-0.018147950440213
0.021642346979323
0.020590556383883
0.019464910311023
0.018335034967861
0.017226426488958
0.016134617725043
0.015047027270695
0.013956347375777
0.012862261486289
0.011767373499426
0.010674010820882
0.0095836569152457
0.008497344933724
0.0074158953420629
0.0063400911297045
0.0052708620914006
0.0042093134270671
0.0031566152792231
0.002113922253839
0.0010823769996159
6.3133250573795e-05
-0.00094264406276761
-0.0019337889253449
-0.0029091399163466
-0.003867543978366
-0.0048078683736225
-0.0057289976654889
-0.0066298458078183
-0.0075093598131154
-0.00836652358688
-0.009200360893783
-0.010009936781566
-0.010794363493736
-0.011552792252217
-0.01228443298376
-0.01298851973404
-0.013664374158076
-0.014311299665494
-0.014928753273066
-0.015516076320699
-0.016072912848741
-0.016598550103466
-0.017092975979305
-0.017555102519964
-0.017985754842187
-0.018382374704825
-0.018747647028135
-0.019073211692969
-0.019362101263681
-0.019576429445124
0.023063304859361
0.021907494531117
0.020660466464721
0.019411372133312
0.018191801585299
0.016995134335791
0.015805016506455
0.014612171108487
0.013416243728978
0.012220507514001
0.011027775285094
0.0098396914568691
0.0086572981816123
0.007481398793656
0.0063127823869962
0.0051524254166216
0.0040015094270322
0.0028612861887907
0.0017329845146649
0.00061781711669386
-0.00048298934711109
-0.0015681921645637
-0.0026365433010572
-0.0036867961911574
-0.0047177091365949
-0.0057280590919997
-0.0067166356037193
-0.007682257345944
-0.0086237726998241
-0.0095400668983746
-0.010430059479554
-0.011292712697945
-0.012127026194495
-0.012932042291
-0.013706848251397
-0.014450561445192
-0.01516236762676
-0.015841444085607
-0.016487098707253
-0.017098536294743
-0.017675236436522
-0.01821634544183
-0.018721669154241
-0.019189947303683
-0.019621841970325
-0.02001430252502
-0.020369925192739
-0.020678531437782
-0.020942649476197
-0.021117227999425
0.024623135784512
0.023353906725053
0.021973213796136
0.02059345036737
0.019252868129893
0.017941898387088
0.016639754522007
0.015335019285739
0.014027403908589
0.012721001833928
0.011419203450114
0.010123832306976
0.0088359212630656
0.0075562461763045
0.0062856132043872
0.0050250657323231
0.0037758801784163
0.0025394041387048
0.0013169525048048
0.0001098200502443
-0.0010806812056814
-0.0022532181535826
-0.0034064476319771
-0.0045390246864219
-0.0056496054383133
-0.0067368630519556
-0.0077994780102455
-0.0088361594134668
-0.0098456416283193
-0.010826697068134
-0.011778123939738
-0.012698766008415
-0.013587490657586
-0.014443215690915
-0.015264878964848
-0.016051465677988
-0.016801991736461
-0.017515489635744
-0.018191077936164
-0.018827790488157
-0.019424907973041
-0.019981360519961
-0.020496724392191
-0.020969504646847
-0.021399967333997
-0.021784926784912
-0.022126185942921
-0.022413341549545
-0.022646690799004
-0.022775194876039
0.02632751597684
0.024935270923798
0.023408052527839
0.021885967206642
0.020414474294669
0.018979936207179
0.017556281882532
0.016129810691521
0.014700496079854
0.013273443212912
0.011852700754012
0.010440272235104
0.0090371624417484
0.0076441174998014
0.0062619796951545
0.0048918869801536
0.0035352334516515
0.0021934787308718
0.00086803772748637
-0.000439699060945
-0.0017283199383365
-0.0029963863166152
-0.0042424444390933
-0.00546503552695
-0.0066626980219557
-0.0078339858289477
-0.0089774544836164
-0.010091687994103
-0.01117529030712
-0.012226904213461
-0.013245189084634
-0.01422885362175
-0.015176612547621
-0.016087240036692
-0.016959502857978
-0.017792231354645
-0.018584243003347
-0.01933440158328
-0.020041594175721
-0.020704666370003
-0.021322627117001
-0.021894204637693
-0.022418624853603
-0.022894253251522
-0.02332080045531
-0.023695119986802
-0.024018183216764
-0.024278991417601
-0.024476014969725
-0.024550526670428
0.028180819466139
0.026656448185678
0.02497008862459
0.023294154350258
0.021681938669605
0.020114625125568
0.018559955075215
0.01700178330684
0.015440591454827
0.01388273337645
0.012332995819261
0.010793543273954
0.009265325186143
0.0077490628218635
0.0062456639618129
0.0047563932278218
0.0032827877632371
0.001826438186876
0.00038887548064515
-0.0010283973010389
-0.0024238508878667
-0.0037959231518824
-0.0051430317192996
-0.0064635862658631
-0.0077559899727456
-0.0090186600363635
-0.01025000986114
-0.011448480427804
-0.012612527916597
-0.01374064750203
-0.014831342645027
-0.015883165425691
-0.016894663380876
-0.017864441259595
-0.018791080679289
-0.019673224355627
-0.020509479417344
-0.02129850421508
-0.022038927105296
-0.022729391231562
-0.023368559800565
-0.02395498959846
-0.024487467023789
-0.024964172110624
-0.025384419090637
-0.025744674036936
-0.026045575167536
-0.026275030295143
-0.026429689852009
-0.026442867023915
0.030186551670961
0.028521721653286
0.026663824341506
0.024822799771385
0.023060368686887
0.021351248814188
0.019656067398773
0.017956158775658
0.016252827755569
0.014553923623765
0.012865027682352
0.011188426163502
0.0095249868195433
0.0078754247587732
0.0062407561862456
0.0046224137926329
0.0030221057733328
0.0014415729529153
-0.00011751888660356
-0.0016535340371571
-0.0031648044557616
-0.0046496227932283
-0.0061062570689284
-0.0075329650060528
-0.0089279950099471
-0.01028960751326
-0.01161605488002
-0.012905615169066
-0.01415657941022
-0.015367273217862
-0.016536028989445
-0.017661219199914
-0.01874120962932
-0.019774409152973
-0.020759202135834
-0.021694016292648
-0.022577229332866
-0.023407273944595
-0.024182491007138
-0.024901305118924
-0.025562003882983
-0.026162942113409
-0.026702450856462
-0.027178476704419
-0.027589900080257
-0.027932728804564
-0.028207224960109
-0.028400150067493
-0.028506166936754
-0.028450426346841
0.03234684359122
0.030533852211301
0.028492521553056
0.026475856002375
0.024554340998683
0.022694715646217
0.02084961620148
0.018997933697356
0.017142190898521
0.015291978624164
0.013453707425523
0.011629732725668
0.0098208117833773
0.0080276819943519
0.0062515258189391
0.004493993113405
0.0027569947613956
0.001042445018096
-0.00064783321783501
-0.002312046472018
-0.003948361864016
-0.0055549015808296
-0.0071297602515674
-0.0086710207080531
-0.010176754643505
-0.011645043551436
-0.013073958818542
-0.014461592562268
-0.015806052372995
-0.017105471412048
-0.018357995154074
-0.019561791075868
-0.020715031261431
-0.021815903252535
-0.02286257921809
-0.023853248410635
-0.024786045826529
-0.025659153464972
-0.026470616891674
-0.027218609384884
-0.027901053613942
-0.02851604370056
-0.029061493607595
-0.029535039563692
-0.029935097247506
-0.030257237802366
-0.030501214599062
-0.030652461881738
-0.030704042595458
-0.030571999283374
0.034662248832592
0.032694055525953
0.030458107722184
0.028256224247381
0.026167591235594
0.024149214931829
0.022144977568671
0.020131603245518
0.018113302076149
0.016101619851279
0.014103787573463
0.012122170320429
0.010157410131222
0.0082103209561244
0.006282319117339
0.0043753213212749
0.0024914700938249
0.00063287633367056
-0.0011984510468308
-0.0030005286836616
-0.0047713270176618
-0.0065087667207487
-0.0082107399961275
-0.0098751272400919
-0.01149980060667
-0.01308263787175
-0.014621507577821