/*--------------------------------*- C++ -*----------------------------------*\
| =========                 |                                                 |
| \\      /  F ield         | OpenFOAM: The Open Source CFD Toolbox           |
|  \\    /   O peration     | Version:  2112                                  |
|   \\  /    A nd           | Website:  www.openfoam.com                      |
|    \\/     M anipulation  |                                                 |
\*---------------------------------------------------------------------------*/
FoamFile
{
    version     2.0;
    format      ascii;
    arch        "LSB;label=32;scalar=64";
    class       surfaceScalarField;
    location    "12";
    object      phi;
}
// * * * * * * * * * * * * * * * * * * * * * * * * * * * * * * * * * * * * * //

dimensions      [0 3 -1 0 0 0 0];

oriented        oriented;

internalField   nonuniform List<scalar> 
43645
(
0.39512369346563
-4.8204576971069e-06
0.39513803338567
-1.4339987237384e-05
0.39516185133717
-2.3818024209901e-05
0.39519510236387
-3.3251101868782e-05
0.39523775513673
-4.2652848396805e-05
0.39528976876988
-5.2013707991865e-05
0.39535107563886
-6.1306942464625e-05
0.39542158745346
-7.0511886548389e-05
0.39550120890327
-7.962151998665e-05
0.39558985161779
-8.864278299832e-05
0.39568743056894
-9.7579017797389e-05
0.3957938623995
-0.00010643189550901
0.39590904628403
-0.00011518394766858
0.39603287169305
-0.00012382547054002
0.39616519481384
-0.00013232318058578
0.39630587311242
-0.00014067835689897
0.39645471822794
-0.00014884517227715
0.39661157454317
-0.00015685637071214
0.39677620534539
-0.00016463085635545
0.39694846758343
-0.0001722622911559
0.3971280458491
-0.00017957831767757
0.39731485258934
-0.00018680679151272
0.39750841818822
-0.00019356564928872
0.3977088118167
-0.00020039367842471
0.39791524605009
-0.00020643428271845
0.39812818746217
-0.00021294146118309
0.39834616437391
-0.00021797696042295
0.3985705958721
-0.00022443154619968
0.39879848556734
-0.00022788974206917
-0.00023495654040402
0.39903344206025
0.3729470611261
-9.3269431200501e-06
0.37296057362055
-2.7852590358117e-05
0.372983178059
-4.6422573354448e-05
0.37301483671757
-6.4909871060472e-05
0.37305552293491
-8.3339174969249e-05
0.37310520766879
-0.00010169854923178
0.37316384079166
-0.00011994017043096
0.37323135193854
-0.00013802313630946
0.3733076601875
-0.00015592986937008
0.37339268691015
-0.00017366960379399
0.37348635356249
-0.00019124576579352
0.37358858269078
-0.00020866111717807
0.37369928146977
-0.00022588281760207
0.37381835096004
-0.00024289504960017
0.373945662487
-0.00025963479402219
0.37408109072453
-0.00027610667899172
0.37422446482863
-0.00029221935887859
0.374375645267
-0.0003080368899815
0.37453440974471
-0.00032339541321107
0.37470062753569
-0.00033848016002721
0.37487399535426
-0.00035294621273695
0.37505443647198
-0.0003672479848424
0.37524149450623
-0.00038062375807086
0.37543524930146
-0.00039414854764864
0.37563493084783
-0.00040611590231993
0.37584101515316
-0.00041902583949024
0.37605205956013
-0.00042902143983777
0.37626948920494
-0.00044186126247595
0.37649036838541
-0.00044876899129072
-0.00046291750169093
0.37671832927615
0.35201533687954
-1.3766405087109e-05
0.35202860461098
-4.1120435874213e-05
0.3520507071743
-6.8525251134116e-05
0.35208161521721
-9.5818027228544e-05
0.3521213152825
-0.00012303935128583
0.352169797637
-0.00015018101233168
0.35222703600622
-0.00017717864549225
0.35229298309735
-0.00020397033067038
0.35236757522991
-0.00023052210228773
0.35245074384046
-0.00025683831207914
0.35254241488527
-0.00028291690542224
0.35264251489669
-0.00030876122086018
0.35275095816781
-0.00033432617814994
0.35286766012219
-0.00035959709102914
0.35299251121495
-0.00038448597120941
0.35312541069417
-0.00040900624057833
0.35326620906281
-0.00043301780759224
0.35341478977125
-0.00045661767685364
0.35357094222251
-0.00047954794103706
0.35373455427238
-0.00050209228527313
0.35390532256737
-0.00052371458166582
0.35408319368462
-0.00054511917532763
0.3542676970471
-0.00056512719277057
0.35445895391561
-0.00058540548810343
0.35465614975598
-0.00060331181401329
0.35485984182206
-0.00062271797700015
0.35506847135042
-0.0006376510393174
0.35528363241745
-0.00065702240004925
0.35550210828968
-0.00066724493147482
-0.0006886796733091
0.35572787039085
0.3322584073526
-1.8129892757663e-05
0.33227146947349
-5.4182658075813e-05
0.3322932231193
-9.0278998770922e-05
0.33232363524721
-0.00012623025604687
0.33236270007121
-0.00016210427427744
0.33241043007591
-0.00019791111395233
0.33246682956232
-0.00023357822635729
0.33253188077733
-0.00026902163784374
0.3326055414528
-0.00030418286730124
0.33268775496005
-0.00033905190653169
0.33277845202073
-0.00037361405061809
0.33287756350326
-0.00040787278560126
0.33298501204488
-0.00044177479936414
0.33310073099407
-0.00047531611767009
0.3332246346048
-0.00050838965698355
0.33335665337404
-0.00054102508302459
0.33349666416338
-0.00057302866803225
0.33364457974547
-0.00060453332861465
0.33380020257837
-0.0006351708418844
0.33396344443183
-0.00066533420568362
0.33413399812219
-0.00069426833766263
0.33431184128641
-0.00072296240460088
0.33449647821435
-0.00074976418485105
0.33468808788853
-0.0007770152262356
0.33488578632486
-0.00080101031370682
0.33509024999749
-0.00082718171315746
0.33529975193499
-0.00084715304002458
0.3355161489215
-0.00087341944925076
0.33573584022811
-0.00088693629837678
-0.00091623096855238
0.33596339146054
0.31361035807415
-2.2430672850843e-05
0.31362326065986
-6.7085335106724e-05
0.31364475084549
-0.00011176927586897
0.3136747966456
-0.00015627614652935
0.31371340236152
-0.00020071007855516
0.31376060633701
-0.0002451151756847
0.31381644883643
-0.00028942080952908
0.31388094736559
-0.00033352024843683
0.3139540856944
-0.00037732127488542
0.31403582238155
-0.00042078867009358
0.31412609512772
-0.00046388687051085
0.31422484150914
-0.00050661923846136
0.31433199557056
-0.00054892892962928
0.31444751341056
-0.00059083402445396
0.31457133869344
-0.00063221500429689
0.31470344034839
-0.00067312680069737
0.31484372756638
-0.00071331594677134
0.31499214971422
-0.0007529555359348
0.31514852587497
-0.00079154706056793
0.31531279882137
-0.00082960720922939
0.31548465754414
-0.00086612711647741
0.31566412033199
-0.00090242524819009
0.31585066094338
-0.0009363048513074
0.31604453311702
-0.00097088745507511
0.31624476662616
-0.0010012438777573
0.31645219070512
-0.0010346058475425
0.31666486675582
-0.0010598291461624
0.31688498212502
-0.0010935348738191
0.31710844445854
-0.0011103986854494
-0.0011483357474494
0.31734054918096
0.29600894053383
-2.6669426414518e-05
0.29602168882612
-7.9833711951417e-05
0.29604292484304
-0.00013300537736365
0.29607261990371
-0.00018597129073316
0.2961107915831
-0.00023888183961844
0.29615750853074
-0.00029183220311388
0.29621285227735
-0.0003447646336459
0.29627688092879
-0.00039754897531328
0.29634960890421
-0.0004500493232991
0.29643101370441
-0.00050219354116236
0.2965210431077
-0.00055391634215963
0.29661964472465
-0.00060522092169183
0.29672676795584
-0.00065605222466922
0.29684239709341
-0.00070646322396736
0.29696651139649
-0.00075632936710462
0.29709912583727
-0.00080574129960876
0.29724018875626
-0.000854378921998
0.29738969420548
-0.00090246104020534
0.29754748318897
-0.00094933609757652
0.29771353779503
-0.00099566186806508
0.29788754586782
-0.0010401352409243
0.29806957681693
-0.0010844562486353
0.29825907214161
-0.0011258002265848
0.29845637633621
-0.0011681917003453
0.2986604212263
-0.0012052888181303
0.29887221688884
-0.00124640156078
0.29908957913109
-0.001277191438986
0.29931508134733
-0.0013190371404656
0.2995440588245
-0.001339376211267
-0.0013869277089173
0.29978265073438
0.27939539827015
-3.0833248013414e-05
0.27940795671676
-9.2392234192233e-05
0.27942888130794
-0.00015393004398346
0.27945814824051
-0.00021523829770009
0.27949579074075
-0.00027652441246196
0.27954191136434
-0.00033795289753362
0.27959663734658
-0.0003994906845495
0.27966007200825
-0.00046098370370581
0.27973226467702
-0.00052224205647014
0.27981321566306
-0.00058314458961899
0.27990288644487
-0.00064358718401297
0.28000123865578
-0.00070357319071144
0.28010824161851
-0.00076305524321297
0.28022391360004
-0.00082213525957347
0.28034827587653
-0.00088069169558319
0.28048139715277
-0.00093886262642356
0.28062327220842
-0.00099625402644049
0.28077394838685
-0.0010531372664075
0.28093329528412
-0.0011086830412321
0.2811013436691
-0.0011637102988365
0.2812777852791
-0.0012165768957325
0.28146275201811
-0.0012694230322994
0.28165565484474
-0.0013187030972757
0.28185694502454
-0.0013694819244385
0.28206545077695
-0.0014137946145907
0.28228238900461
-0.0014633398330602
0.28250530790495
-0.001500110383961
0.28273721509325
-0.0015509443734702
0.28297281684019
-0.0015749780014759
-0.0016333045053983
0.28321919359029
0.26371427535688
-3.4899220132855e-05
0.26372657754725
-0.00010469449354666
0.26374708246877
-0.00017443503430146
0.26377577267323
-0.00024392857004567
0.26381269882476
-0.00031345063032523
0.26385799993916
-0.00038325407678895
0.26391185220588
-0.00045334301422252
0.26397440778264
-0.00052353934180728
0.2640457545971
-0.00059358893022078
0.26412591949831
-0.00066330954842514
0.26421488150005
-0.00073254924121236
0.26431262054246
-0.00080131228690961
0.26441913068887
-0.00086956544132599
0.26453446993291
-0.00093747455378725
0.26465870789396
-0.0010049297048639
0.2647919744177
-0.001072129197114
0.2649343181554
-0.0011385978094185
0.26508584848375
-0.0012046676390792
0.26524647134232
-0.0012693059427632
0.26541627628231
-0.0013335152811887
0.26559496616505
-0.001395266819803
0.26578274759194
-0.0014572045002899
0.26597900635302
-0.0015149618987463
0.26618431629253
-0.0015747919044441
0.26639740242598
-0.0016268807880989
0.26661971165806
-0.0016856491055729
0.26684851378089
-0.0017289125469845
0.26708728919723
-0.0017897198298883
0.26733008036189
-0.0018177692047502
-0.0018882024561587
0.26758497827116
0.24891323104799
-3.8837635997469e-05
0.24892518893138
-0.00011665243812968
0.24894512993702
-0.00019437610090856
0.2489730443187
-0.00027184301191438
0.24900900141536
-0.00034940778577008
0.24905317817955
-0.00042743089850627
0.24910580167756
-0.00050596656809356
0.24916707529761
-0.00058481301632901
0.24923712841498
-0.00066364210023575
0.24931601767926
-0.00074219886391075
0.24940374334882
-0.00082027496007554
0.24950030785093
-0.00089787683689775
0.24960573468814
-0.00097499232452488
0.24972012684986
-0.0010518667602045
0.2498436081607
-0.0011284110586534
0.24997637620825
-0.0012048972865332
0.25011854074223
-0.0012807623837308
0.2502702814198
-0.0013564083561905
0.25043154904483
-0.0014305736060881
0.25060250211782
-0.0015044683920027
0.25078286386138
-0.0015756286002386
0.25097292792191
-0.0016472685975462
0.25117206390161
-0.0017140979145073
0.25138098305679
-0.0017837110958358
0.25159831440896
-0.0018442121760651
0.25182575291709
-0.0019130876498595
0.25206029150576
-0.0019634511715573
0.25230590916897
-0.0020353375289012
0.25255597490078
-0.0020678349710581
-0.0021518582499216
0.25281963065725
0.23494286479482
-4.2614923023881e-05
0.23495437728984
-0.00012816498838042
0.2349735884535
-0.00021358731961248
0.23500049730982
-0.00029875192267429
0.23503519248382
-0.00038410301304612
0.23507788917212
-0.00047012763910984
0.23512886578981
-0.00055694323669686
0.23518837791547
-0.00064432519181634
0.23525659813982
-0.00073186237287568
0.2353336153717
-0.00081921614292831
0.23541945438836
-0.00090611402224176
0.23551414374208
-0.0009925662349655
0.23561774063558
-0.0010785892607268
0.23573039729757
-0.0011645234638132
0.23585229690679
-0.0012503107079389
0.235983709846
-0.0013363102648804
0.23612481388385
-0.0014218664593257
0.23627586560165
-0.0015074601110218
0.23643687004969
-0.0015915780899732
0.23660806341105
-0.0016756617887542
0.23678920064905
-0.0017567658726575
0.23698067332546
-0.0018387413081647
0.23718184827988
-0.0019152729023974
0.23739358557377
-0.0019954484232151
0.2376144360882
-0.0020650627234142
0.23784635130124
-0.00214500289599
0.23808606766583
-0.0022031675687784
0.23833806946923
-0.0022873393646463
0.23859506228099
-0.0023248278138011
-0.002424054736433
0.23886725873399
0.22175655099363
-4.6196173091304e-05
0.22176751180706
-0.00013912585099574
0.22178581890921
-0.00023189447081228
0.2218114806513
-0.00032441371336428
0.22184460471717
-0.00041722712655202
0.22188544355213
-0.00051096652094956
0.22193432585252
-0.00060582558282407
0.22199155878136
-0.00070155816556027
0.22205735868046
-0.00079766231559228
0.22213184809933
-0.00089370560452508
0.22221507893842
-0.00098934490267028
0.22230710853796
-0.0010845958749515
0.22240803140297
-0.001179512164761
0.22251805161677
-0.0012745437157878
0.22263741608373
-0.0013696752117253
0.2227664705337
-0.0014653647509275
0.22290546776549
-0.0015608637259521
0.22305474447172
-0.0016567368515202
0.22321437177997
-0.0017512054314066
0.22338466712579
-0.0018459571673861
0.22356543435241
-0.0019375331311797
0.22375716561221
-0.0020304725996963
0.22395924837976
-0.0021173557009456
0.2241726886624
-0.0022088887368543
0.22439599862238
-0.0022883727138016
0.22463136787284
-0.0023803721769624
0.22487534589845
-0.0024471456243698
0.22513289027723
-0.0025448837730636
0.22539611494048
-0.0025880525053635
-0.0027041541957774
0.22567621436912
0.20931028336872
-4.9547633665274e-05
0.20932058753546
-0.00014943006215721
0.20933781982303
-0.00024912680276263
0.20936199759463
-0.00034859152904197
0.20939324640025
-0.00044847597549989
0.2094318535848
-0.00054957374829909
0.20947819544811
-0.00065216748801783
0.20953262851138
-0.00075599127013172
0.20959541200202
-0.00086044584649391
0.20966670227562
-0.00096499591775019
0.20974658001069
-0.0010692226762169
0.20983513281999
-0.0011731487220553
0.2099324950904
-0.0012768744717892
0.21003892350612
-0.0013809721674772
0.21015473191572
-0.0014854836561155
0.21028034097262
-0.0015909738420349
0.21041608570274
-0.0016966084891647
0.2105623807647
-0.0018030319460965
0.21071938033921
-0.001908205037515
0.2108874753121
-0.0020140521715298
0.21106655039212
-0.0021166082415605
0.21125717981132
-0.0022211020490439
0.21145882223572
-0.0023189981547139
0.21167258710389
-0.0024226536343125
0.21189704910025
-0.0025128347387631
0.21213448252056
-0.0026178056258393
0.21238155585129
-0.0026942189830211
0.21264322343691
-0.0028065513861312
0.21291180372519
-0.0028566328197334
-0.0029912555229771
0.21319890502409
0.19756252843114
-5.2639572543527e-05
0.19757207909633
-0.00015898076755154
0.19758807979411
-0.00026512754077799
0.19761055530505
-0.00037106708005461
0.19763964721591
-0.0004775679258563
0.19767567457714
-0.00058560114867538
0.19771905722732
-0.00069555017661973
0.19777019732763
-0.00080713140847797
0.19782939449314
-0.00091964304920731
0.19789683786746
-0.0010324393288462
0.19797263707223
-0.0011450219168297
0.19805691054826
-0.0012574222334653
0.19814983319933
-0.0013697971572539
0.19825171403278
-0.0014828530348604
0.19836293396046
-0.0015967036167261
0.19848398777748
-0.0017120276915445
0.19861529480795
-0.001827915551153
0.19875734792152
-0.0019450850907908
0.19891039351104
-0.0020612506572422
0.19907489243411
-0.0021785511244842
0.19925083868003
-0.0022925545165232
0.19943886200579
-0.0024091254036113
0.19963856623338
-0.0025187024103382
0.19985108420114
-0.0026351716299583
0.20007520217934
-0.0027369527441318
0.20031311664529
-0.0028557201188472
0.20056188052402
-0.0029429828881045
0.20082605737363
-0.0030707282615507
0.20109884984923
-0.0031294253198195
-0.0032838754035649
0.20139146970323
0.18647408432064
-5.5446557750032e-05
0.18648280088298
-0.00016769736685311
0.18649743635422
-0.00027976304912426
0.18651802193369
-0.0003916526965749
0.18654471292511
-0.00050425895388763
0.18657785589608
-0.00061874415605572
0.18661790898254
-0.00073560329892761
0.18666531518202
-0.00085453764355658
0.18672041080213
-0.00097473870425868
0.18678341562538
-0.001095444186753
0.18685446686435
-0.0012160731897172
0.186933713247
-0.0013366686497174
0.18702136870706
-0.0014574526501272
0.18711779322142
-0.0015792775817015
0.18722343149777
-0.0017023419247336
0.18733885147662
-0.0018274477017168
0.18746455274059
-0.0019536168455912
0.1876011109052
-0.0020816432855397
0.18774885930561
-0.0022089990869344
0.18790834425492
-0.0023380361027545
0.18807966002838
-0.0024638703181064
0.18826351884213
-0.0025929842451772
0.18845965905415
-0.002714842649372
0.18866927473997
-0.0028447873425447
0.18889133971616
-0.0029590177463144
0.18912807548826
-0.003092455916707
0.189376784515
-0.0031916919398402
0.18964197023664
-0.0033359140075787
0.18991724809046
-0.0034047031967249
-0.0035802991692156
0.19021367183101
0.17600795114956
-5.7948979367112e-05
0.1760157716787
-0.0001755179304387
0.17602893677275
-0.00029292817781817
0.17604748338382
-0.0004101993423389
0.17607157796597
-0.00052835357036363
0.17610158967628
-0.00064875590055491
0.17613800860257
-0.00077202225892439
0.17618131235811
-0.00089784143264087
0.17623186899935
-0.0010252953784675
0.17628992573572
-0.001153500955895
0.17635564518254
-0.0012817926686964
0.17642920437428
-0.0014102278734131
0.17651085340968
-0.0015391017168291
0.17660099974806
-0.0016694239511879
0.17670014690581
-0.0018014891129047
0.17680893179818
-0.0019362326242693
0.17692792927158
-0.0020726143484292
0.17705779683389
-0.0022115108770116
0.17719895118029
-0.0023501534616861
0.17735203173799
-0.002491116688473
0.1775172251648
-0.0026290637720725
0.17769535295596
-0.0027711120631329
0.17788625911107
-0.0029057488303997
0.17809126670488
-0.0030497949619119
0.17830946256032
-0.0031772136264731
0.17854322983232
-0.0033262232130627
0.17878995201194
-0.0034384141430236
0.17905436300638
-0.0036003250249142
0.17933006113601
-0.0036804013480495
-0.0038787264890449
0.17962848843217
0.16612920675249
-6.0133782095052e-05
0.16613608893189
-0.00018240014246627
0.16614771018928
-0.00030454946806386
0.16616411219619
-0.0004266013821404
0.16618546974699
-0.00054971115369772
0.1662121691385
-0.00067545532443454
0.16624472535934
-0.00080457851163339
0.16628364361823
-0.00093675972316966
0.16632931793697
-0.0010709697282767
0.16638201855033
-0.0012062016001061
0.16644193017665
-0.0013417043252909
0.16650925498823
-0.0014775527151009
0.16658427531979
-0.0016141220779516
0.16666744054541
-0.0017525892062452
0.16675930650873
-0.0018933551050897
0.16686057188212
-0.0020374980263671
0.16697188054011
-0.0021839230344775
0.16709396623154
-0.0023335965962316
0.16722732660915
-0.0024835138663239
0.16737269172151
-0.0026364818274649
0.16753034321686
-0.0027867152931595
0.16770121268463
-0.0029419815561374
0.1678852552032
-0.0030897913732376
0.16808392870761
-0.0032484684900501
0.16829643852858
-0.0033897234702144
0.16852534265739
-0.0035551273641323
0.16876812442535
-0.0036811959323775
0.16902976168177
-0.0038619623020372
0.16930387674972
-0.0039545164356344
-0.0041770464664493
0.16960219670553
0.15680488949762
-6.1994618674909e-05
0.15681081082725
-0.00018832150346745
0.15682084744792
-0.00031458612025325
0.15683504441279
-0.00044079837840796
0.15685358179382
-0.00056824856560825
0.15687685732403
-0.00069873088515593
0.15690540350052
-0.00083312471793995
0.15693974558295
-0.00097110183496803
0.15698029720982
-0.0011115213837865
0.15702734655586
-0.0012532509743925
0.15708109637078
-0.0013954541678167
0.15714176952968
-0.001538225901386
0.157209675468
-0.001682028043129
0.15728529851961
-0.0018282122846041
0.1573692388067
-0.0019772954184591
0.15746224737796
-0.0021305066237844
0.15756502881829
-0.0022867045003973
0.15767838492035
-0.0024469527236223
0.15780288893513
-0.0026080179056907
0.15793935633593
-0.0027729492523761
0.15808816282858
-0.002935521808959
0.15825034759557
-0.0031041663455899
0.15842598213758
-0.0032654259365937
0.15861665730099
-0.0034391436740326
0.15882171004556
-0.0035947762342318
0.15904386569624
-0.0037772830335151
0.15928073599428
-0.0039180662481684
0.15953753259583
-0.0041187589206423
0.15980797256469
-0.0042249564207318
-0.0044730139806215
0.16010394006072
0.14800388793041
-6.3531647448349e-05
0.14800884527775
-0.00019327888171532
0.14801728843715
-0.00032302931049956
0.14802926448725
-0.00045277445885492
0.14804495564661
-0.00058393975437438
0.1480647651135
-0.0007185403806141
0.14808923537096
-0.00085759500282207
0.14811890404774
-0.0010007705382757
0.14815419799356
-0.0011468153550156
0.14819541783461
-0.001294470840129
0.14824277993233
-0.0014428162893552
0.14829652254575
-0.0015919685382225
0.14835697629719
-0.001742481817407
0.14842465177007
-0.0018958877801876
0.14850018442185
-0.002052828092502
0.14858436631818
-0.0022146885422777
0.14867795307152
-0.0023802912754017
0.14878180381045
-0.0025508034839362
0.14889655988496
-0.0027227740008525
0.14902311388851
-0.0028995032759771
0.14916193085999
-0.0030743387994265
0.14931415121158
-0.003256386715256
0.1494799644317
-0.0034312391734613
0.1496610917935
-0.0036202710514728
0.14985701453484
-0.0037906989898407
0.15007062426502
-0.0039908927769093
0.15029966244624
-0.0041471044415136
0.15054956906299
-0.0043686655488069
0.15081417636305
-0.0044895637317343
-0.0047642931881507
0.15110545555778
0.13969683646778
-6.4750884398353e-05
0.13970084447666
-0.00019728692295905
0.13970771510261
-0.00032989996856918
0.13971749618248
-0.00046255556966828
0.13973036892993
-0.00059681253104524
0.13974673604827
-0.00073490752650549
0.13976714259474
-0.00087800157493425
0.13979213079177
-0.0010257587593063
0.13982213448693
-0.0011768190724646
0.13985746110924
-0.0013297974834737
0.13989833652933
-0.0014836917292594
0.13994500839857
-0.0016386404266083
0.13999782271611
-0.0017952961533804
0.14005730587318
-0.0019553709554524
0.1401241195458
-0.0021196417828893
0.14019908266262
-0.0022896516767577
0.14028299277144
-0.0024642014014105
0.14037675180148
-0.0026445625308482
0.14048106270044
-0.0028270849159154
0.14059688138134
-0.0030153219722338
0.14072475833418
-0.0032022157664118
0.14086592005397
-0.0033975484479714
0.14102067158652
-0.0035859907173224
0.14119085371194
-0.0037904531866816
0.14137609641599
-0.0039759417019245
0.14157948903458
-0.0041942854020617
0.14179889319529
-0.0043665086074427
0.14204001029004
-0.0046097826480388
0.14229668699152
-0.0047462404376492
-0.0050484565686546
0.1425808503658
0.1318560166293
-6.5662816979798e-05
0.13185910507764
-0.00020037540971233
0.13186445066457
-0.00033524559390593
0.13187210025876
-0.00047020520032613
0.13188223051248
-0.00060694281841217
0.13189523793735
-0.00074791498217451
0.13191166355399
-0.00089442721937971
0.1319320469607
-0.0010461421912245
0.13195682329563
-0.001201595430119
0.13198630098182
-0.0013592751905046
0.13202071178048
-0.0015181025471256
0.13206030593946
-0.0016782346037702
0.13210543974479
-0.0018404299760221
0.13215664287167
-0.002006574099263
0.13221459586123
-0.0021775947889195
0.13228012611479
-0.0023551819466101
0.13235406804788
-0.0025381433503172
0.13243734375302
-0.0027278382513726
0.13253071990028
-0.0029204610776949
0.13263518707299
-0.0031197891584891
0.13275139198965
-0.0033184206951397
0.13288061355525
-0.0035267700240245
0.13302328015825
-0.0037286573287335
0.13318132308202
-0.0039484961167882
0.13335449057897
-0.004149109202916
0.13354610085789
-0.004385895682971
0.13375414003903
-0.0045745477888029
0.13398474568709
-0.0048403882954302
0.13423171257481
-0.0049932073250159
-0.0053229705993584
0.13450622660395
0.12445526459897
-6.6281119905795e-05
0.12445747370196
-0.00020258456583147
0.12446136351763
-0.00033913546401458
0.12446697769159
-0.00047581942646175
0.12447448386999
-0.00061444904511032
0.12448426613152
-0.00075769728787274
0.12449685457074
-0.00090701569863124
0.12451277968367
-0.0010620673405646
0.12453247370019
-0.0012212894798194
0.12455624193604
-0.0013830434570399
0.12458431993265
-0.0015461805723784
0.12461695346749
-0.001710868165925
0.12465450399143
-0.0018779805262149
0.12469748888892
-0.0020495590224439
0.12474660199389
-0.002226707919016
0.12480265529398
-0.0024112352714836
0.12486652357034
-0.0026020116508362
0.12493911356316
-0.0028004282677004
0.12502127686507
-0.0030026244019733
0.12511398075371
-0.0032124930681374
0.12521801278643
-0.0034224527469232
0.12533462432857
-0.0036433815830157
0.12546443047694
-0.0038584634912516
0.12560938218961
-0.0040934478407815
0.12576934904284
-0.0043090760644019
0.12594781748409
-0.004564364129621
0.12614270454299
-0.0047694348506458
0.1263609169318
-0.0050586006859059
0.12659626663412
-0.0052285570293619
-0.0055870762006736
0.12686037223078
0.11746988801242
-6.6625417078234e-05
0.11747126827522
-0.00020396490871607
0.11747378898592
-0.00034165625791562
0.11747748742393
-0.00047951794554307
0.11748252104875
-0.00061948274649486
0.11748925709589
-0.0007644334065162
0.11749820635306
-0.00091596502229136
0.11750988258075
-0.0010737436303834
0.11752470972366
-0.0012361166811094
0.11754298768122
-0.0014013214700902
0.11756495567822
-0.0015681486225835
0.11759085124713
-0.0017367637864596
0.11762103652107
-0.0019081658505613
0.11765600135798
-0.0020845239089349
0.11769644625457
-0.0022671528644541
0.11774314078745
-0.002457929852524
0.11779700859312
-0.0026558795037885
0.11785889597423
-0.0028623156949464
0.11792978187666
-0.0030735103489771
0.11801051707003
-0.0032932283039766
0.11810213072415
-0.0035140664408558
0.11820566382068
-0.0037469147161107
0.11832212022958
-0.003974919933135
0.11845320803457
-0.0042245356748218
0.11859923135842
-0.0044550994133133
0.11876364143693
-0.0047287742291642
0.11894401113297
-0.0049498045643283
0.11914807039723
-0.005262659965649
0.11936797054477
-0.0054484571923884
-0.0058426732588294
0.11962356758307
0.11087658546787
-6.6726081437178e-05
0.11087720986346
-0.00020458942132789
0.11087847513681
-0.00034292165279103
0.11088040291543
-0.00048144584359858
0.11088314029512
-0.00062222024072696
0.11088703510261
-0.00076832832300027
0.11089257495807
-0.00092150498136714
0.11090025501992
-0.0010814237912756
0.11091048812025
-0.0012463498766353
0.11092356850117
-0.001414401943316
0.11093973594761
-0.0015843161590134
0.11095921508161
-0.0017562430088434
0.1109823594835
-0.0019313103394469
0.11100962058534
-0.0021117850967916
0.1110416960516
-0.0022992284156147
0.11107929742263
-0.0024955313074739
0.11112340194269
-0.0026999841062943
0.11117476080668
-0.0029136746397389
0.11123452218663
-0.0031332718072114
0.1113033153325
-0.0033620215251582
0.11138255756874
-0.0035933087483417
0.11147277733703
-0.0038371345511792
0.11157579168368
-0.0040779343413878
0.11169231474767
-0.0043410587953357
0.11182413593945
-0.0045869206561754
0.11197347276858
-0.0048781111041182
0.11213944288139
-0.0051157747180025
0.11232922110208
-0.0054524382239514
0.11253023352037
-0.0056494696473944
-0.0060890797926697
0.11277664001048
0.104653356331
-6.6616575782996e-05
0.10465332213527
-0.00020455538156574
0.10465346302929
-0.00034306270575795
0.10465380112078
-0.00048178409135535
0.10465446163165
-0.0006228809029198
0.10465574177958
-0.00076960861680843
0.10465810344617
-0.00092386678880702
0.10466203265773
-0.0010853531394694
0.1046679462517
-0.001252263603916
0.10467615163469
-0.0014226074570517
0.10468689494991
-0.0015950596030599
0.10470038462924
-0.0017697328154031
0.10471694076327
-0.0019478665994514
0.10473695532302
-0.002131799781183
0.1047610904273
-0.0023233636432973
0.10478999849347
-0.0025244394954022
0.10482469439849
-0.002734680131215
0.10486585053587
-0.002954830894286
0.10491477837378
-0.0031821997589017
0.10497185630947
-0.0034190995698805
0.10503896114114
-0.003660413683468
0.10511584769668
-0.0039140212034133
0.10520566624189
-0.0041677529765033
0.10530692668425
-0.0044423193205076
0.10542501743731
-0.0047050114852686
0.10555665869834
-0.0050097524339614
0.10570972689487
-0.0052688429769978
0.1058832264448
-0.0056259378315125
0.10607714931353
-0.0058433925723659
-0.0063124825455463
0.10630055199889
0.098779387124366
-6.6285593126992e-05
0.098778786441729
-0.00020395488034228
0.098777865103627
-0.00034214155037567
0.098776780959917
-0.00048070012746505
0.098775654887805
-0.00062175500619325
0.09877464480638
-0.00076859870630843
0.098774197080365
-0.00092341922977661
0.098774761497486
-0.0010859177206342
0.098776742211207
-0.0012542444794568
0.09878045531574
-0.001426320721981
0.098786166901567
-0.0016007713480981
0.098794098823092
-0.0017776648953319
0.09880455545136
-0.0019583233851052
0.098817880767206
-0.0021451252535114
0.098834672377346
-0.0023401554084862
0.098855513626957
-0.0025452808985018
0.098881396993619
-0.0027605636488242
0.098912950580663
-0.0029863846290455
0.098951584392715
-0.0032208337136688
0.098997549959807
-0.0034650652733328
0.09905308193609
-0.0037159457877289
0.099117343323207
-0.0039782827093954
0.099194750092522
-0.0042451598548843
0.099281520261287
-0.004529089589129
0.099387372745882
-0.0048108640604857
0.099500682395231
-0.0051230621648196
0.099643429897961
-0.0054115905527563
0.099787308531409
-0.0057698165328949
0.099978187532703
-0.006034271642696
0.10020876456685
-0.0065430596611504
0.39437190419951
0.0046615378132827
0.38986897751115
0.0045029266421293
0.38552916640019
0.0043398110653346
0.38135685117292
0.0041723151814891
0.37735626889496
0.0040005822319966
0.37353151059676
0.0038247582515512
0.3698865115601
0.0036449989895681
0.36642504206101
0.0034614694511353
0.36315070188561
0.0032743401269254
0.36006691664176
0.0030837851944518
0.35717693474207
0.0028899818497584
0.35448382476457
0.0026931099266312
0.35199047341005
0.0024933513031395
0.34969958314601
0.0022908902117279
0.34761366984054
0.0020859132526877
0.34573506003483
0.0018786097520112
0.34406588846154
0.0016691715191865
0.34260809511289
0.0014577932936267
0.34136342246264
0.0012446725948591
0.34033341204
0.0010300103663414
0.33951940099737
0.00081401098597378
0.33892251680679
0.0005968841329583
0.33854366862733
0.00037884812148368
0.33838351483483
0.00016015373351067
0.33844250326503
-5.8988489594507e-05
0.33872115935255
-0.00027865614796914
0.33921938168419
-0.00049822239250056
0.33993698599423
-0.00071760437195417
0.34087357638891
-0.00093659045694289
0.34202853545688
-0.0011549591311815