/*--------------------------------*- C++ -*----------------------------------*\
| =========                 |                                                 |
| \\      /  F ield         | OpenFOAM: The Open Source CFD Toolbox           |
|  \\    /   O peration     | Version:  2112                                  |
|   \\  /    A nd           | Website:  www.openfoam.com                      |
|    \\/     M anipulation  |                                                 |
\*---------------------------------------------------------------------------*/
FoamFile
{
    version     2.0;
    format      ascii;
    arch        "LSB;label=32;scalar=64";
    class       volVectorField;
    location    "12";
    object      U;
}
// * * * * * * * * * * * * * * * * * * * * * * * * * * * * * * * * * * * * * //

dimensions      [0 1 -1 0 0 0 0];

internalField   nonuniform List<vector> 
22000
(
(1.0000010325221 -2.5134033134031e-05 0)
(1.0000259445065 -7.4922467126634e-05 0)
(1.0000736084408 -0.00012436989370707 0)
(1.0001450517896 -0.00017351332876077 0)
(1.000240679873 -0.00022243813170841 0)
(1.0003604077238 -0.00027110777269965 0)
(1.000503914548 -0.00031939260448687 0)
(1.0006708527052 -0.00036719238729151 0)
(1.0008609214946 -0.00041447656546103 0)
(1.0010738869776 -0.00046128619094649 0)
(1.0013095476125 -0.00050764171264354 0)
(1.0015677240342 -0.0005535528261907 0)
(1.0018481878661 -0.00059892699005801 0)
(1.0021506898639 -0.00064371149599997 0)
(1.0024748820736 -0.00068773006541047 0)
(1.0028204304093 -0.0007309894962667 0)
(1.0031868662333 -0.00077325047397289 0)
(1.0035738205333 -0.00081468871323286 0)
(1.0039806995076 -0.0008548804913949 0)
(1.0044071625654 -0.00089432341767905 0)
(1.0048524320606 -0.00093211027396055 0)
(1.0053162822281 -0.00096944744253136 0)
(1.0057976065987 -0.0010043163478152 0)
(1.0062964698816 -0.0010395723036253 0)
(1.0068111523534 -0.0010706779323345 0)
(1.0073424022658 -0.0011042937795534 0)
(1.0078873169614 -0.0011301234783093 0)
(1.0084481496348 -0.0011635602784204 0)
(1.0090197081053 -0.0011810794429997 0)
(1.0096074071309 -0.0012181262388339 0)
(1.000000496992 -7.3981118022583e-05 0)
(1.0000254360428 -0.00022074583534128 0)
(1.0000734674848 -0.00036668085272648 0)
(1.0001455447046 -0.00051183894510925 0)
(1.0002421153773 -0.00065644920629229 0)
(1.0003631719809 -0.00080040634982177 0)
(1.0005084622559 -0.00094332870353172 0)
(1.0006776928519 -0.0010849086192979 0)
(1.0008705850222 -0.0012250359714199 0)
(1.0010869250613 -0.0013638114366203 0)
(1.0013265026026 -0.0015012822405591 0)
(1.0015891577159 -0.0016374726381238 0)
(1.0018746380113 -0.0017721160719208 0)
(1.0021827454916 -0.0019050655676516 0)
(1.0025130890225 -0.0020358129933866 0)
(1.0028654480039 -0.002164377198783 0)
(1.0032392424784 -0.0022900549582109 0)
(1.0036343222064 -0.0024133426405881 0)
(1.0040498102521 -0.0025329962787834 0)
(1.0044858083911 -0.0026504423637908 0)
(1.0049408943299 -0.0027630443568951 0)
(1.0054157899993 -0.0028742791320245 0)
(1.0059079816809 -0.0029783112381194 0)
(1.0064196015686 -0.0030833639748918 0)
(1.0069458596353 -0.0031763677117961 0)
(1.0074920468974 -0.0032764558010845 0)
(1.0080485329595 -0.0033540861512563 0)
(1.0086275649239 -0.0034533423766301 0)
(1.0092093182263 -0.003506983083172 0)
(1.0098210416975 -0.0036161740455026 0)
(1.0000005187891 -0.00012087222480641 0)
(1.0000264439721 -0.0003609810323811 0)
(1.0000762966621 -0.00059994336599349 0)
(1.0001509647918 -0.00083779060514603 0)
(1.0002508603242 -0.0010749074427123 0)
(1.0003760093689 -0.0013111775214994 0)
(1.0005262267191 -0.0015460076845947 0)
(1.0007012967375 -0.0017788722847505 0)
(1.0009009836139 -0.0020095274462145 0)
(1.0011251122457 -0.0022380690400915 0)
(1.0013734574062 -0.0024645226247486 0)
(1.0016458825555 -0.0026889207210291 0)
(1.0019420912525 -0.0029108484218363 0)
(1.0022619644271 -0.0031301226170182 0)
(1.0026050455545 -0.0033459440073815 0)
(1.0029713029318 -0.0035583862301696 0)
(1.0033599843952 -0.0037662591278621 0)
(1.003771302888 -0.0039703890582098 0)
(1.004203918938 -0.0041686263778038 0)
(1.0046586687044 -0.0043633745133162 0)
(1.0051330474258 -0.0045501293184036 0)
(1.0056293772578 -0.0047348127248047 0)
(1.0061427311771 -0.0049074943827595 0)
(1.0066788122895 -0.0050821887854701 0)
(1.00722743835 -0.0052366496423331 0)
(1.0078019405074 -0.0054034580250076 0)
(1.0083805573394 -0.0055323349159809 0)
(1.0089936889751 -0.0056983052740675 0)
(1.0095944017746 -0.0057869800313596 0)
(1.010250782232 -0.0059704207723117 0)
(1.0000005270205 -0.00016681323108578 0)
(1.0000275436881 -0.00049851355880867 0)
(1.0000795321026 -0.00082873019810572 0)
(1.0001573961356 -0.0011574839825126 0)
(1.0002615455381 -0.0014853963178536 0)
(1.0003920458109 -0.0018124646327289 0)
(1.0005487829186 -0.0021379632256562 0)
(1.000731637601 -0.0024611415215656 0)
(1.0009404330174 -0.0027815460675187 0)
(1.0011750526162 -0.003099176989396 0)
(1.0014352543991 -0.0034139688615425 0)
(1.0017209390541 -0.0037259572186659 0)
(1.0020317500425 -0.0040346175788048 0)
(1.002367684235 -0.0043398217545633 0)
(1.0027281950796 -0.004640537379894 0)
(1.0031135266124 -0.0049369625744562 0)
(1.0035226856411 -0.0052273774651 0)
(1.0039564125675 -0.0055129625512292 0)
(1.0044127115582 -0.0057905158205275 0)
(1.0048934791237 -0.0060635110207131 0)
(1.0053946650904 -0.0063253307953968 0)
(1.0059208939309 -0.0065846503656564 0)
(1.0064637849859 -0.0068269506971107 0)
(1.0070341698943 -0.007072769521502 0)
(1.0076141445822 -0.0072895630985826 0)
(1.008228579063 -0.0075250202232012 0)
(1.0088383487005 -0.00770557834184 0)
(1.0094998878111 -0.0079409796078572 0)
(1.0101275045636 -0.0080639239087963 0)
(1.0108477468889 -0.0083259260001152 0)
(1.0000005343313 -0.00021199045560294 0)
(1.0000287808983 -0.00063401043112168 0)
(1.000083192978 -0.0010542393953827 0)
(1.0001647059665 -0.0014726656520982 0)
(1.0002737399118 -0.0018902353620019 0)
(1.0004104194676 -0.0023072121265701 0)
(1.0005747264512 -0.002722834621216 0)
(1.0007666684728 -0.0031361198112579 0)
(1.0009861479591 -0.0035463147923395 0)
(1.0012331292561 -0.003953217824521 0)
(1.0015073558611 -0.0043565920383616 0)
(1.0018087851301 -0.0047564723959116 0)
(1.0021369915612 -0.0051522704129705 0)
(1.0024921312351 -0.0055440223070656 0)
(1.0028735503146 -0.0059305278857517 0)
(1.0032818598095 -0.0063121957387887 0)
(1.0037157650167 -0.0066867180950963 0)
(1.0041767008654 -0.0070556673881808 0)
(1.0046618346665 -0.0074145986148993 0)
(1.0051744484691 -0.0077681884667458 0)
(1.0057085078958 -0.0081073770983411 0)
(1.0062716288075 -0.0084440101098466 0)
(1.00685098365 -0.0087583094774066 0)
(1.0074640434107 -0.00907832464029 0)
(1.0080829535868 -0.0093596975289324 0)
(1.0087474876271 -0.0096674709230019 0)
(1.009396148224 -0.0099013664708582 0)
(1.0101189206942 -0.010210951341424 0)
(1.0107802181494 -0.010368279881236 0)
(1.0115817378577 -0.010715865929571 0)
(1.0000005391567 -0.00025647234373306 0)
(1.000030076034 -0.00076772503914536 0)
(1.0000870424792 -0.001276941771371 0)
(1.0001724075444 -0.0017840544768511 0)
(1.0002866063341 -0.0022904290886487 0)
(1.0004298430926 -0.00279676330318 0)
(1.0006022253303 -0.0033023673850326 0)
(1.0008039238467 -0.0038060168342154 0)
(1.0010349458998 -0.0043065578370042 0)
(1.0012953630064 -0.004803467832489 0)
(1.0015849102959 -0.0052962483408364 0)
(1.0019036246833 -0.005784931517474 0)
(1.0022510079787 -0.0062689169540217 0)
(1.0026274230211 -0.0067485316694713 0)
(1.0030320985002 -0.0072224810020712 0)
(1.0034661077137 -0.0076914856134586 0)
(1.0039278039203 -0.0081525811227988 0)
(1.0044194860324 -0.0086077825376577 0)
(1.004937319624 -0.0090511771417843 0)
(1.0054862940353 -0.009488810309738 0)
(1.0060579793161 -0.0099087844281894 0)
(1.0066636514878 -0.010326621848365 0)
(1.0072850965448 -0.010716474564923 0)
(1.0079478758476 -0.011115100064354 0)
(1.0086120676822 -0.011464491616177 0)
(1.0093355552821 -0.011849761165419 0)
(1.0100297207475 -0.012139766883353 0)
(1.0108252197419 -0.012530062352147 0)
(1.0115260761194 -0.01272271716543 0)
(1.0124248543968 -0.013165130807466 0)
(1.000000539183 -0.00030019675751612 0)
(1.0000313309229 -0.00089949827460418 0)
(1.0000907993947 -0.0014965946404472 0)
(1.0001799486844 -0.0020913381764108 0)
(1.0002992328129 -0.002685618528623 0)
(1.0004489553184 -0.0032807503498037 0)
(1.0006293798076 -0.0038762331294111 0)
(1.0008408782006 -0.004470593555447 0)
(1.001083590794 -0.0050621699091521 0)
(1.0013577253335 -0.0056499935940174 0)
(1.0016630186425 -0.0062332100611072 0)
(1.0019996137758 -0.0068118499139066 0)
(1.0023669416067 -0.0073853594421114 0)
(1.0027656231301 -0.0079544971962684 0)
(1.0031947664982 -0.0085179547822932 0)
(1.0036560056248 -0.0090768807493167 0)
(1.0041473018671 -0.0096275794033569 0)
(1.0046719883199 -0.010172572644233 0)
(1.0052250823727 -0.010704230927751 0)
(1.0058135958014 -0.011230163948115 0)
(1.0064263256273 -0.01173518944662 0)
(1.0070788506208 -0.012239086495727 0)
(1.0077466980151 -0.012709012975968 0)
(1.00846489316 -0.013191797226655 0)
(1.0091794788001 -0.013613693669104 0)
(1.0099694586758 -0.014082969895363 0)
(1.0107146816357 -0.014432902478804 0)
(1.0115931114883 -0.014912017731303 0)
(1.0123386876303 -0.015141809124085 0)
(1.0133493705382 -0.015690261391295 0)
(1.0000005327995 -0.00034298392369559 0)
(1.0000324503989 -0.0010288081310958 0)
(1.0000941893324 -0.0017123431087758 0)
(1.000186788229 -0.0023933397670686 0)
(1.0003107234761 -0.0030743225784334 0)
(1.0004664172504 -0.0037574176959983 0)
(1.0006543195697 -0.0044424407289995 0)
(1.0008750416052 -0.0051276660093076 0)
(1.0011288862956 -0.0058108159259508 0)
(1.0014162284847 -0.0064903490403851 0)
(1.001736820332 -0.0071649596579014 0)
(1.0020909406421 -0.0078346825203028 0)
(1.0024779564452 -0.0084990751581648 0)
(1.0028988010316 -0.0091594798405676 0)
(1.0033524662471 -0.0098146615438177 0)
(1.003841246181 -0.010466325061589 0)
(1.0043626823209 -0.011109966573888 0)
(1.0049213100377 -0.011748693284409 0)
(1.0055108743169 -0.012372894080755 0)
(1.0061407126546 -0.01299196550868 0)
(1.0067965155706 -0.013586955612344 0)
(1.0074987674669 -0.014182540210707 0)
(1.008215955292 -0.014737871207314 0)
(1.0089938386709 -0.015311342154475 0)
(1.0097626470387 -0.015811180068922 0)
(1.0106252584221 -0.016372183088933 0)
(1.011426008897 -0.016786889377506 0)
(1.0123961818375 -0.017364419059903 0)
(1.0131909442685 -0.017634147764427 0)
(1.0143266836243 -0.018301712020928 0)
(1.0000005184568 -0.00038456790096895 0)
(1.0000333446164 -0.0011548652281472 0)
(1.0000969515306 -0.0019228824452253 0)
(1.0001924103067 -0.0026882491538353 0)
(1.0003202225028 -0.0034542393240766 0)
(1.0004809475863 -0.0042239915741683 0)
(1.0006752514882 -0.0049977711681513 0)
(1.0009040216285 -0.0057736014273985 0)
(1.001167753336 -0.0065484837862379 0)
(1.001467019863 -0.0073201796998819 0)
(1.0018016051068 -0.0080868401144528 0)
(1.0021719550094 -0.0088485146164968 0)
(1.0025773847928 -0.0096049419279272 0)
(1.0030191951103 -0.010358208435021 0)
(1.003496272983 -0.011107245402373 0)
(1.0040116704632 -0.011854452361848 0)
(1.0045624943691 -0.012594443252101 0)
(1.0051546435789 -0.013331002215498 0)
(1.0057804934456 -0.014052266822001 0)
(1.0064519900562 -0.014769665274218 0)
(1.0071514396164 -0.015459969496787 0)
(1.0079047795078 -0.016153435863746 0)
(1.0086727915596 -0.016800143583454 0)
(1.0095130963088 -0.017471634041608 0)
(1.0103385863973 -0.018055693449842 0)
(1.0112784266404 -0.018717209664715 0)
(1.0121380141005 -0.019202548887778 0)
(1.0132071627668 -0.019889441680869 0)
(1.0140548536652 -0.020203017121992 0)
(1.0153270510636 -0.021004444200927 0)
(1.0000004949429 -0.00042462767038256 0)
(1.0000339316934 -0.0012767065941633 0)
(1.0000988474541 -0.0021266138233094 0)
(1.0001963417272 -0.0029738395247238 0)
(1.0003269437949 -0.0038225215788737 0)
(1.0004913675025 -0.0046770128206535 0)
(1.0006905220485 -0.0055381654148836 0)
(1.0009256051507 -0.0064037584361078 0)
(1.0011973331054 -0.0072699739905397 0)
(1.001506507484 -0.0081337582353888 0)
(1.0018529623258 -0.0089926329800767 0)
(1.0022373418491 -0.0098466781721752 0)
(1.0026589262251 -0.010695889174255 0)
(1.0031194363695 -0.011543260684084 0)
(1.0036176737562 -0.012387989898001 0)
(1.0041575394579 -0.013233314878799 0)
(1.0047357063633 -0.014072903661515 0)
(1.0053595838518 -0.014911316721795 0)
(1.0060201131295 -0.015734181320174 0)
(1.0067320998748 -0.01655521331156 0)
(1.0074742576483 -0.017346404166396 0)
(1.0082784440317 -0.018144295027848 0)
(1.0090972226021 -0.018888812608086 0)
(1.010001011488 -0.019666261968629 0)
(1.0108841642546 -0.020341547589141 0)
(1.0119041139656 -0.021113254424746 0)
(1.0128245838748 -0.021676078298601 0)
(1.0139981386114 -0.022484477431454 0)
(1.0149017169076 -0.02284702866195 0)
(1.0163196970346 -0.023798519881394 0)
(1.0000004613373 -0.00046281595359806 0)
(1.0000341400926 -0.0013932814260915 0)
(1.0000996682965 -0.0023217867206217 0)
(1.000198169114 -0.0032476660651532 0)
(1.0003302011079 -0.0041760314058772 0)
(1.0004966464323 -0.0051126462983565 0)
(1.0006986814091 -0.0060590875911538 0)
(1.0009378426193 -0.0070129019708906 0)
(1.0012150939029 -0.0079693641225589 0)
(1.0015314909885 -0.0089244951469315 0)
(1.0018869388215 -0.0098751125011809 0)
(1.0022823068891 -0.010821344853374 0)
(1.002716863658 -0.011763527150367 0)
(1.0031927941646 -0.012705722593199 0)
(1.0037088464806 -0.013647506174392 0)
(1.0042698425756 -0.014593091163623 0)
(1.0048720495586 -0.0155351646686 0)
(1.0055244989343 -0.016479149316894 0)
(1.0062166882142 -0.01740794988925 0)
(1.0069664704213 -0.018337799973688 0)
(1.0077488600054 -0.019235460534071 0)
(1.0086019798663 -0.020144425132617 0)
(1.0094698619553 -0.020993455528477 0)
(1.010436388995 -0.021885150611466 0)
(1.0113766026436 -0.022659265983556 0)
(1.0124776076688 -0.023551429069561 0)
(1.0134596069288 -0.024199570771458 0)
(1.0147409496563 -0.025142553488584 0)
(1.0157025266441 -0.025560574570472 0)
(1.0172733242098 -0.026679643021187 0)
(1.0000004170514 -0.00049878671539461 0)
(1.0000339117559 -0.001503532752714 0)
(1.0000992423022 -0.0025066320032899 0)
(1.0001975520968 -0.0035072484443529 0)
(1.0003294312507 -0.0045115717208611 0)
(1.0004959387143 -0.0055269622813585 0)
(1.0006985368076 -0.00655585666129 0)
(1.0009391206246 -0.0075955849419359 0)
(1.0012189263886 -0.0086404393669266 0)
(1.0015392809535 -0.0096854155325417 0)
(1.0019001865679 -0.010726566165345 0)
(1.0023027521394 -0.011764085884427 0)
(1.0027462732972 -0.012798743874787 0)
(1.0032334158146 -0.013835816323575 0)
(1.0037629413285 -0.014875391207666 0)
(1.004340606308 -0.015922764680044 0)
(1.0049623787793 -0.016969669642422 0)
(1.0056389090182 -0.01802241478719 0)
(1.0063583993372 -0.019061098251459 0)
(1.0071417353702 -0.020104564085007 0)
(1.0079603988125 -0.021114112723045 0)
(1.0088587875682 -0.022140605609499 0)
(1.009772561661 -0.023100984334978 0)
(1.0107990826513 -0.024115203754651 0)
(1.0117943051466 -0.02499630073602 0)
(1.0129749294047 -0.026019284730216 0)
(1.0140178495482 -0.026761605088455 0)
(1.0154075955852 -0.027852534000667 0)
(1.0164282157059 -0.028333894574584 0)
(1.0181561683761 -0.029638917138194 0)
(1.0000003624127 -0.00053221845182681 0)
(1.0000332093662 -0.0016064717617149 0)
(1.0000974514023 -0.0026794865188204 0)
(1.0001942481653 -0.0037502427284772 0)
(1.0003242242072 -0.0048261024291755 0)
(1.0004886198825 -0.0059161955581696 0)
(1.0006891977798 -0.0070239479676866 0)
(1.0009282207042 -0.0081464933130244 0)
(1.0012072195478 -0.0092770807382505 0)
(1.0015277968119 -0.010409591257568 0)
(1.001890085125 -0.011539267852766 0)
(1.0022954266657 -0.012666386127066 0)
(1.0027432057924 -0.013792254599102 0)
(1.00323654114 -0.014923485795261 0)
(1.0037743317135 -0.016060842176853 0)
(1.0043631806811 -0.017210766858604 0)
(1.0049990074198 -0.018364157063196 0)
(1.005693842171 -0.01952810670871 0)
(1.006435096182 -0.020680080810314 0)
(1.0072461331242 -0.02184126674993 0)
(1.0080958671211 -0.022967854871554 0)
(1.0090338519817 -0.024117738990633 0)
(1.0099891461779 -0.025196393705554 0)
(1.0110703305744 -0.026340889872128 0)
(1.0121179884314 -0.027338016575639 0)
(1.0133727220715 -0.028500787289522 0)
(1.0144779702668 -0.029349693713302 0)
(1.015968446888 -0.030597177716627 0)
(1.0170568069347 -0.031158383584234 0)
(1.0189369193837 -0.032663777330726 0)
(1.0000002971968 -0.00056282886624391 0)
(1.0000320119211 -0.0017012216327133 0)
(1.0000942351028 -0.0028388713443229 0)
(1.0001881297559 -0.0039745595714177 0)
(1.0003143533371 -0.005116901991894 0)
(1.0004743287856 -0.0062769527342953 0)
(1.0006701258595 -0.007459246208369 0)
(1.0009043785449 -0.0086607446294991 0)
(1.0011789262566 -0.0098736052755069 0)
(1.001495649119 -0.011090523718646 0)
(1.0018548335927 -0.012305897443123 0)
(1.0022580496421 -0.013520105988442 0)
(1.0027048174179 -0.014735094748824 0)
(1.0031986870528 -0.015958934712841 0)
(1.0037387913471 -0.01719321107732 0)
(1.0043325126449 -0.018445595429249 0)
(1.0049759255585 -0.019706246756779 0)
(1.005682235907 -0.020983014101961 0)
(1.0064385408422 -0.022250851352796 0)
(1.0072700712793 -0.023533095461359 0)
(1.0081443707486 -0.024781278718563 0)
(1.0091144571715 -0.026059587204341 0)
(1.0101056807563 -0.027263462456716 0)
(1.0112337580668 -0.028544911849699 0)
(1.0123301896533 -0.029667831742837 0)
(1.013650815145 -0.030978617823717 0)
(1.0148182902112 -0.031947221874505 0)
(1.0163996517569 -0.033359820045141 0)
(1.0175629662097 -0.034020138564221 0)
(1.0195866594957 -0.03573784344037 0)
(1.0000002224703 -0.00059038737266647 0)
(1.0000303164801 -0.0017870535559663 0)
(1.0000895802488 -0.0029835506725862 0)
(1.0001791647273 -0.0041784481107382 0)
(1.000299753317 -0.0053816802525478 0)
(1.0004529487262 -0.0066063571921951 0)
(1.000641126415 -0.0078582272149992 0)
(1.000867288752 -0.0091341084423587 0)
(1.0011335844571 -0.010425029343602 0)
(1.0014421713705 -0.011722446812098 0)
(1.0017934984154 -0.013019885924079 0)
(1.0021893679017 -0.014317861898101 0)
(1.002629453665 -0.015619041960972 0)
(1.0031177419621 -0.016933080505772 0)
(1.0036536324845 -0.018262506687586 0)
(1.0042452904868 -0.019616330917507 0)
(1.0048890071323 -0.020984031005786 0)
(1.0055991632987 -0.022374282822737 0)
(1.0063626527536 -0.023759515083579 0)
(1.0072065534847 -0.025165339455236 0)
(1.0080972412607 -0.026538557406915 0)
(1.0090910998244 -0.027949892242491 0)
(1.0101101647911 -0.029284603342846 0)
(1.0112769848319 -0.030709977110284 0)
(1.0124146980613 -0.031966713584828 0)
(1.0137938032968 -0.033435242632984 0)
(1.0150171540742 -0.034533890458045 0)
(1.0166834844101 -0.036124627194273 0)
(1.017917353757 -0.036896256332917 0)
(1.0200798734779 -0.038843107190325 0)
(1.0000001389477 -0.00061472597502842 0)
(1.0000281361796 -0.0018634229525437 0)
(1.0000835195982 -0.0031125918173903 0)
(1.0001674104961 -0.0043605759020852 0)
(1.0002805090928 -0.0056186765699561 0)
(1.000424589405 -0.0069021664442252 0)
(1.0006023228769 -0.0082180974799823 0)
(1.0008170700087 -0.009563171708445 0)
(1.0010712809339 -0.010927264733123 0)
(1.0013673851703 -0.012300556082517 0)
(1.0017059926277 -0.013675682882506 0)
(1.0020891376 -0.015053328003778 0)
(1.0025166540014 -0.016436959634606 0)
(1.0029929666288 -0.017837926796336 0)
(1.003517754259 -0.019259815953627 0)
(1.0040999676806 -0.020713079264422 0)
(1.0047361448781 -0.022186583820182 0)
(1.0054418497949 -0.023689904566887 0)
(1.0062038406965 -0.025192979452954 0)
(1.0070510550395 -0.02672379262799 0)
(1.0079488270009 -0.028224440727907 0)
(1.008956909821 -0.029772348125797 0)
(1.0099942373301 -0.031242573462382 0)
(1.0111901461402 -0.032817957926649 0)
(1.0123597726403 -0.034215761639458 0)
(1.013788102309 -0.035851111535328 0)
(1.0150588241784 -0.037089737875911 0)
(1.016802015333 -0.038871126629026 0)
(1.0180998295855 -0.039766567760262 0)
(1.0203936054839 -0.041958503504283 0)
(1.0000000482261 -0.00063574417879217 0)
(1.0000254980705 -0.0019299859762233 0)
(1.0000761261794 -0.0032253939527271 0)
(1.0001530059335 -0.0045200715113383 0)
(1.0002568417157 -0.0058267175978006 0)
(1.0003895659572 -0.0071628464261662 0)
(1.0005541296654 -0.0085368864933314 0)
(1.0007542328597 -0.0099454514922937 0)
(1.000992611025 -0.011377253011271 0)
(1.0012719518087 -0.012821168921973 0)
(1.0015930180231 -0.014268943347956 0)
(1.0019580686471 -0.015721456479201 0)
(1.0023670938477 -0.01718304785173 0)
(1.00282494854 -0.018666854410178 0)
(1.0033315898027 -0.020177623584318 0)
(1.0038967437195 -0.021727342260782 0)
(1.0045172073981 -0.023304347507471 0)
(1.0052097218211 -0.024919189802331 0)
(1.0059609602965 -0.026539380488855 0)
(1.0068017163737 -0.028195377535785 0)
(1.0076964000671 -0.029824642048269 0)
(1.0087081153251 -0.031511449604086 0)
(1.0097529144828 -0.033120713223119 0)
(1.0109668554547 -0.034851046078835 0)
(1.0121574486964 -0.036396183374194 0)
(1.013623976957 -0.03820640847998 0)
(1.0149316251953 -0.039594255937705 0)
(1.0167413608201 -0.041577936158448 0)
(1.0180942789354 -0.042609507619651 0)
(1.0205086593473 -0.045060946239684 0)
(0.99999995140041 -0.00065340900408635 0)
(1.0000224421357 -0.0019866007134665 0)
(1.0000675101204 -0.0033216924423442 0)
(1.0001361614 -0.0046565328624834 0)
(1.0002290927926 -0.0060052311875249 0)
(1.0003483768313 -0.00738759381198 0)
(1.0004972197412 -0.0088134805634004 0)
(1.0006796341768 -0.010279442640821 0)
(1.0008986189182 -0.011773029718551 0)
(1.0011570997765 -0.013281806633321 0)
(1.0014559796276 -0.014796630557467 0)
(1.0017977264481 -0.016318603402594 0)
(1.0021824758312 -0.017852997939989 0)
(1.0026154906643 -0.019414808086116 0)
(1.0030969921707 -0.021010036333513 0)
(1.0036374535569 -0.022652279623666 0)
(1.004233929941 -0.024329438799456 0)
(1.0049043126729 -0.026053113625168 0)
(1.0056352283989 -0.027788483482061 0)
(1.0064592974703 -0.029568578572293 0)
(1.0073401157157 -0.031326335578678 0)
(1.0083440859997 -0.033153007867086 0)
(1.0093845950757 -0.034903501592848 0)
(1.0106043425527 -0.036792349770984 0)
(1.0118035829434 -0.038489862511003 0)
(1.013295731507 -0.040481780657643 0)
(1.01462813909 -0.042027141027952 0)
(1.0164920948923 -0.044223672079418 0)
(1.0178890956325 -0.045403061428134 0)
(1.0204103169701 -0.048126411474969 0)
(0.99999985064903 -0.00066775014114307 0)
(1.0000190167454 -0.0020333157931952 0)
(1.0000578070948 -0.0034015429402205 0)
(1.0001171418286 -0.0047700082833104 0)
(1.0001976976429 -0.0061542255477283 0)
(1.0003016646747 -0.0075763157620606 0)
(1.000432474804 -0.0090476094543031 0)
(1.0005944154795 -0.01056461702503 0)
(1.0007907223319 -0.012113740620534 0)
(1.0010245310623 -0.013681227957021 0)
(1.0012968730725 -0.015257068410114 0)
(1.0016103989849 -0.01684259831598 0)
(1.0019653794352 -0.018444083215374 0)
(1.0023674414791 -0.020078409024957 0)
(1.0028170550079 -0.021752928485335 0)
(1.003325376391 -0.023482889784641 0)
(1.0038897225806 -0.02525587739336 0)
(1.00452906149 -0.027084591482283 0)
(1.0052300330157 -0.028932017666374 0)
(1.0060269908935 -0.030833836930125 0)
(1.0068828565125 -0.032718618686848 0)
(1.0078672083526 -0.034684686101803 0)
(1.008890984973 -0.036577152123162 0)
(1.0101033993159 -0.038626538740669 0)
(1.0112977992418 -0.040479991817203 0)
(1.0128015617244 -0.042658989430203 0)
(1.0141450896992 -0.044368865356827 0)
(1.0160491134325 -0.046788010794751 0)
(1.0174776503131 -0.048125816092494 0)
(1.0200889545829 -0.051131704816856 0)
(0.99999974689381 -0.00067885017802548 0)
(1.0000152714658 -0.0020703411439426 0)
(1.0000471640984 -0.003465279116714 0)
(1.0000962428786 -0.0048609476851149 0)
(1.0001631527568 -0.0062742355350683 0)
(1.0002501681247 -0.0077295690094108 0)
(1.0003609140304 -0.0092397760392913 0)
(1.0004999076759 -0.01080134730639 0)
(1.0006705994734 -0.012399571466877 0)
(1.0008762924922 -0.014019377229656 0)
(1.001118144588 -0.015649920907763 0)
(1.0013989377793 -0.017292756718611 0)
(1.0017190876451 -0.018955208082623 0)
(1.0020844924991 -0.020656028310815 0)
(1.0024958922746 -0.022404045073624 0)
(1.0029649767593 -0.024216129087804 0)
(1.0034894041067 -0.026079747374766 0)
(1.0040890079291 -0.028008661336127 0)
(1.0047506332398 -0.029963929356672 0)
(1.0055100805182 -0.031983821465472 0)
(1.0063299173633 -0.033992886019353 0)
(1.0072825285525 -0.036096398232683 0)
(1.0082768696517 -0.038130138390018 0)
(1.0094680946328 -0.040340474320784 0)
(1.0106435648136 -0.042351697015047 0)
(1.0121432311735 -0.044721592188715 0)
(1.0134831481107 -0.046600899196791 0)
(1.0154107756344 -0.049251475380373 0)
(1.0168568598392 -0.05075789138535 0)
(1.0195407699135 -0.054054678487771 0)
(0.99999964114443 -0.00068683834607914 0)
(1.0000112494493 -0.0020980184541483 0)
(1.0000357135154 -0.0035134439085871 0)
(1.0000737541834 -0.0049300906389679 0)
(1.0001259761516 -0.0063661817327968 0)
(1.0001946839631 -0.0078484078352927 0)
(1.0002836514775 -0.0093910959845181 0)
(1.0003975633919 -0.010990724919322 0)
(1.0005400805173 -0.012631524678319 0)
(1.0007146198888 -0.014297109991158 0)
(1.0009225003515 -0.015975873184553 0)
(1.001166541416 -0.017669533784102 0)
(1.0014473677423 -0.019386559498657 0)
(1.0017709443857 -0.021147444178051 0)
(1.0021384088071 -0.022962679704876 0)
(1.0025616310889 -0.024850572105647 0)
(1.0030389250626 -0.026798861209166 0)
(1.0035904347934 -0.028822060651391 0)
(1.004203835186 -0.030879951475075 0)
(1.0049154914019 -0.033012822869551 0)
(1.0056886718309 -0.035142187914964 0)
(1.0065971732962 -0.037379402569557 0)
(1.0075497623808 -0.039552153110928 0)
(1.0087051336589 -0.041921913455736 0)
(1.0098480584223 -0.044090666898113 0)
(1.0113261088887 -0.046653191344546 0)
(1.0126477464374 -0.048703726875734 0)
(1.0145775409806 -0.05159163016579 0)
(1.016028433466 -0.05327236047302 0)
(1.0187550572556 -0.056864293149193 0)
(0.99999953337288 -0.00069190585500378 0)
(1.0000070236601 -0.0021168655478729 0)
(1.0000236393568 -0.0035468255221803 0)
(1.0000500164456 -0.004978426903569 0)
(1.0000867262992 -0.0064312006073862 0)
(1.0001360552707 -0.0079340760938998 0)
(1.00020188333 -0.0095028880657573 0)
(1.0002889726241 -0.011134100906834 0)
(1.0004011856707 -0.012810930847576 0)
(1.0005419713173 -0.014515657496435 0)
(1.0007128926992 -0.01623598467442 0)
(1.0009166738434 -0.01797369942437 0)
(1.0011543159732 -0.019738541861306 0)
(1.0014314954332 -0.021552524629786 0)
(1.0017500709234 -0.023428123275077 0)
(1.0021213818728 -0.025384660849816 0)
(1.0025451796966 -0.027410862953585 0)
(1.0030406286848 -0.02952114908634 0)
(1.0035979203992 -0.031675393340103 0)
(1.0042515476466 -0.03391423751939 0)
(1.004968750715 -0.036158527711346 0)
(1.0058201316008 -0.038522975383148 0)
(1.0067203890887 -0.040830548338842 0)
(1.0078235358972 -0.043354715532861 0)
(1.0089226670782 -0.045678182833433 0)
(1.0103593035641 -0.048431332963693 0)
(1.011651323769 -0.050651129282146 0)
(1.0135582527451 -0.053776526969168 0)
(1.0149998410167 -0.05562831628671 0)
(1.0177386526826 -0.059510682199342 0)
(0.9999994242237 -0.00069434981844807 0)
(1.0000027471943 -0.00212775240071 0)
(1.0000113412827 -0.0035668151087979 0)
(1.0000257252069 -0.0050077766078623 0)
(1.000046376554 -0.0064713769896299 0)
(1.0000754993707 -0.0079887092903877 0)
(1.0001170761221 -0.0095771962912303 0)
(1.0001759067111 -0.011233413444305 0)
(1.0002560825632 -0.012939688847599 0)
(1.0003610143136 -0.014676985489306 0)
(1.0004925944479 -0.016432346638056 0)
(1.0006532790834 -0.01820741577837 0)
(1.0008446170153 -0.020013228820296 0)
(1.0010715340155 -0.021872986145908 0)
(1.00133707393 -0.023801566776296 0)
(1.0016510827077 -0.025818797395716 0)
(1.0020160260335 -0.027915526013294 0)
(1.002448016947 -0.030104739886164 0)
(1.0029428135569 -0.032348719187418 0)
(1.003528355876 -0.034685254896749 0)
(1.0041827226631 -0.037039138592612 0)
(1.0049629461591 -0.039522199158205 0)
(1.0058045234982 -0.041960889840729 0)
(1.0068351487475 -0.044631089044511 0)
(1.0078865879457 -0.04710688725967 0)
(1.0092528118255 -0.05004647840143 0)
(1.0105195401465 -0.052431677997664 0)
(1.0123637711279 -0.055804524169816 0)
(1.0138151855737 -0.0578046934822 0)
(1.0165076375193 -0.062030904952321 0)
(0.99999930599432 -0.00069467073901399 0)
(0.99999854827319 -0.0021321810799619 0)
(0.9999991869182 -0.0035758512286019 0)
(1.0000016128888 -0.0050216954275862 0)
(1.0000061317778 -0.0064915731836035 0)
(1.0000146460385 -0.0080183250922405 0)
(1.0000310472086 -0.00962094392091 0)
(1.0000601979536 -0.011296262039662 0)
(1.0001065701147 -0.013025988645136 0)
(1.000173693108 -0.01479003640277 0)
(1.0002639605541 -0.016574999860363 0)
(1.0003795529855 -0.018382296314675 0)
(1.000522506817 -0.020224231008125 0)
(1.0006965830326 -0.022124779220675 0)
(1.0009060002743 -0.024101525773057 0)
(1.0011584346204 -0.026174253024644 0)
(1.0014598538075 -0.028337334329544 0)
(1.0018219005262 -0.030600877336074 0)
(1.0022484832621 -0.032932940514576 0)
(1.0027567341794 -0.03536406184659 0)
(1.0033426348007 -0.037830771314632 0)
(1.0040377038054 -0.040431022780093 0)
(1.0048171189333 -0.043012221189106 0)
(1.0057516893017 -0.045829133956088 0)
(1.0067584767879 -0.048480236035576 0)
(1.0080121326994 -0.051614307087318 0)
(1.009273163155 -0.054196663974775 0)
(1.0109837712085 -0.057863585789476 0)
(1.0125285548553 -0.060033569398801 0)
(1.0150912125861 -0.064884009313727 0)
(0.99999913657966 -0.00069412984259134 0)
(0.99999396208542 -0.0021340258158822 0)
(0.99998648052217 -0.0035813389114531 0)
(0.99997674007281 -0.0050318576400646 0)
(0.99996529664298 -0.0065087114822925 0)
(0.99995375270155 -0.0080463479841818 0)
(0.99994541362838 -0.0096653070021925 0)
(0.9999450999925 -0.011362148347986 0)
(0.99995735338601 -0.013117574379725 0)
(0.9999857242421 -0.014910355380825 0)
(1.0000331312315 -0.016726789863168 0)
(1.0001018320365 -0.018568535335837 0)
(1.0001944470032 -0.020449793464817 0)
(1.000313953795 -0.022395874827978 0)
(1.0004653150168 -0.024427514473284 0)
(1.0006542420285 -0.026564262291922 0)
(1.0008891886793 -0.02880430944875 0)
(1.0011780117777 -0.031153618306178 0)
(1.0015315499718 -0.033587974416266 0)