/*--------------------------------*- C++ -*----------------------------------*\
| =========                 |                                                 |
| \\      /  F ield         | OpenFOAM: The Open Source CFD Toolbox           |
|  \\    /   O peration     | Version:  2112                                  |
|   \\  /    A nd           | Website:  www.openfoam.com                      |
|    \\/     M anipulation  |                                                 |
\*---------------------------------------------------------------------------*/
FoamFile
{
    version     2.0;
    format      ascii;
    arch        "LSB;label=32;scalar=64";
    class       volScalarField;
    location    "18.4";
    object      p;
}
// * * * * * * * * * * * * * * * * * * * * * * * * * * * * * * * * * * * * * //

dimensions      [0 2 -2 0 0 0 0];

internalField   nonuniform List<scalar> 
22000
(
0.021288124606796
0.021265705951235
0.021219469708437
0.021148247238824
0.021051528544084
0.02092934406703
0.020781977371809
0.020609734078807
0.020412852561873
0.020191517715334
0.019945904815424
0.01967621678687
0.019382693790122
0.019065614637365
0.018725284235198
0.018362040571753
0.017976239617913
0.01756827871239
0.017138564565416
0.016687565524224
0.016215737440512
0.015723637876003
0.015211756583757
0.014680771939574
0.014131168088178
0.013563810602207
0.012979083064107
0.012378181892312
0.011761162442303
0.011129822463206
0.021707283977622
0.021683648966998
0.021635911707357
0.021562997982924
0.021464349920287
0.021339921127424
0.021189940461616
0.021014685845885
0.020814382414377
0.020589205931878
0.020339320691067
0.020064916868375
0.019766218987908
0.019443490868928
0.019097020223084
0.018727131954979
0.018334165167461
0.017918508656834
0.017480551173343
0.017020759524722
0.016539566109862
0.016037539826952
0.015515132865658
0.014973059819063
0.014411731684254
0.013832097586769
0.013234376681351
0.012619930179212
0.011988405943692
0.011341800719591
0.022476201028439
0.022451710644708
0.022402327118355
0.022327051576543
0.022225373557736
0.022097245945774
0.021942870406249
0.021762492854744
0.021556309965731
0.021324473455042
0.021067123839203
0.020784427463828
0.020476581537173
0.020143823663432
0.019786411074276
0.019404643860713
0.018998828878014
0.018569335795021
0.018116517666529
0.017640834393242
0.017142673736743
0.016622622888172
0.01608106590183
0.015518787927372
0.014936072214323
0.014334048026619
0.013712653371053
0.013073643708837
0.012415949208742
0.011742130645045
0.023545098577041
0.023519689633434
0.023468457759567
0.023390386673719
0.023284968617609
0.023152155218191
0.022992133026191
0.022805120561006
0.022591279648443
0.02235072556402
0.022083560655506
0.021789913544029
0.021469939452906
0.021123835423022
0.020751811472717
0.020354127623048
0.019931039516477
0.019482883664955
0.019009956387763
0.018512700988276
0.017991435453684
0.017446765602437
0.016878972380148
0.016288932239601
0.015676739131566
0.015043763066023
0.01438952461153
0.013716301411513
0.013021958431752
0.012309786139199
0.024870939145335
0.024844518968083
0.024791243184809
0.024710061785003
0.024600452106312
0.024462351747294
0.02429592423271
0.024101353329293
0.023878755567638
0.023628195963411
0.023349722051878
0.023043407020545
0.022709344778221
0.022347672422273
0.021958531034464
0.021542119956277
0.021098619306619
0.020628312065668
0.020131410617356
0.019608324330706
0.019059269655705
0.018484861541876
0.017885235532637
0.017261368309146
0.016613098249746
0.01594208329962
0.015247299045668
0.014531675153441
0.013791723711115
0.013031679937748
0.02641568234886
0.026388227380994
0.026332857377876
0.026248487293799
0.026134574202716
0.025991031004817
0.025817984820958
0.025615570219846
0.025383842716275
0.025122799804401
0.024832414690839
0.024512683993212
0.024163616841942
0.023785266135549
0.023377677170035
0.022940962271487
0.022475196021201
0.021980580839949
0.021457211755106
0.020905439085018
0.020325339587854
0.019717519318716
0.019081921873869
0.018419622446893
0.017730136481636
0.01701544735278
0.01627386648612
0.015509088735857
0.014716000532406
0.013899945307508
0.028144978571518
0.028116553080779
0.028059215389016
0.027971845792707
0.027853876496818
0.027705184754673
0.027525846380839
0.027315930076511
0.027075412344534
0.026804203653903
0.026502180969131
0.026169240292269
0.025805279130865
0.025410237845711
0.024984034631654
0.024526663134878
0.024038056899461
0.023518304090257
0.022967342634553
0.022385430404707
0.021772459713235
0.021128999118085
0.0204547467026
0.019750862693258
0.019016468433293
0.018253890848904
0.017460656111441
0.016641307195277
0.015788834694629
0.01490979413168
0.030027143697677
0.029997898680533
0.029938894407775
0.029848977021283
0.029727547874359
0.029574436726094
0.029389653172212
0.029173183383962
0.028924906215719
0.028644624193653
0.028332094239403
0.027987085328159
0.027609353790029
0.027198695699383
0.026754867010092
0.026277706133281
0.025766964915678
0.025222576893136
0.024644276769315
0.024032187886468
0.023385965871952
0.022706102204659
0.021991989045262
0.02124484159789
0.020463308647305
0.019650058905932
0.018801710794783
0.017923707208135
0.017006882732828
0.016059050775569
0.032032514936768
0.0320026816676
0.031942477041655
0.031850710871494
0.03172674576554
0.031570352597175
0.03138146113676
0.031159959181444
0.030905609289549
0.030618084502347
0.03029699705013
0.029941961255922
0.029552561144839
0.02912841438694
0.028669076769826
0.028174191031467
0.027643282528144
0.027076083929477
0.026472074920372
0.025831193703844
0.025152800165884
0.024437256855184
0.023683581269314
0.022892998651165
0.02206360153783
0.021198374532921
0.020292904805719
0.019353553598537
0.01836874695983
0.017347532517022
0.034133134236031
0.034103012949991
0.034042216969216
0.033949517397335
0.03382423146452
0.033666061640288
0.033474845060704
0.033250355300943
0.032992220148524
0.032699962232211
0.032373025206383
0.032010841525681
0.031612791839166
0.031178280549989
0.030706624217693
0.030197227112322
0.029649340704935
0.029062446036694
0.028435711700615
0.027768832716345
0.027060808027858
0.026311808430584
0.025520401899358
0.02468776055821
0.023811330153785
0.022894362290125
0.021931288457492
0.02092936699035
0.019874372188446
0.01877648112992
0.036302659376648
0.036272608389345
0.03621194159915
0.03611939770693
0.035994247031968
0.035836115938207
0.035644737025088
0.035419754774789
0.035160644958916
0.034866760094292
0.034537353205631
0.034171649628847
0.033768797411643
0.033327954017222
0.032848158644907
0.032328534027076
0.031768009853371
0.031165762205387
0.030520590190239
0.029831881744228
0.029098205616423
0.028319467209313
0.027493703679955
0.02662195551733
0.025700926686894
0.024734058578045
0.023714501721835
0.022650348125376
0.021524483998653
0.020348020088292
0.038516365101227
0.038486786675432
0.038427058142501
0.038335897449954
0.038212529904295
0.038056499219299
0.037867422700679
0.03764480349442
0.037387952327925
0.037096036762143
0.036768100822001
0.036403139950271
0.036000043414704
0.03555769123544
0.035074810352031
0.03455020098838
0.033982425154139
0.033370300507364
0.032712198472097
0.032007132503379
0.031253169848898
0.030449868701186
0.029594651101403
0.028688329943572
0.027726767773971
0.026713493542014
0.025640252106902
0.024515858046354
0.023320085341672
0.022064682755319
0.040751261069264
0.040722587190521
0.040664667899267
0.040576214412575
0.040456411021648
0.04030471507267
0.040120621040163
0.039903482144653
0.039652435170966
0.039366452414201
0.039044356494898
0.038684896836227
0.038286683123066
0.037848291666317
0.037368107342302
0.036844571458223
0.036275837198659
0.035660313064907
0.034995887810142
0.034281132361788
0.033513542491302
0.032692241117282
0.031813949392593
0.030879143929299
0.029882745500834
0.028828239260048
0.027705842858774
0.026524934945208
0.025261965213441
0.023928916384293
0.042986251108283
0.042958928838074
0.042903720518624
0.04281934753944
0.042704959997642
0.042559927785275
0.042383618651492
0.042175231924388
0.041933726900837
0.041657876165815
0.041346274678024
0.040997416178856
0.04060961821068
0.040181135394173
0.039709987702082
0.039194227484414
0.038631565287961
0.038019955440946
0.037356755512702
0.036640028627917
0.035866633743638
0.035035168254436
0.034141570217058
0.033185858718502
0.032161913996828
0.031073022361379
0.029907758783927
0.02867585483459
0.027350246370533
0.025942633076772
0.045202287078816
0.045176762677362
0.045125167595654
0.045046251708825
0.044939139584314
0.044803116059232
0.044637422481183
0.044441105289584
0.044212948683595
0.043951527691161
0.04365521063414
0.043322233652336
0.04295061780451
0.04253828704929
0.042082884567085
0.041582052959652
0.04103303558698
0.040433295999378
0.039779621879179
0.03906950958269
0.038299124766511
0.037466450150125
0.036566565637495
0.035598905466591
0.034556219328959
0.03344141367955
0.032241317997545
0.030965750297343
0.02958396923272
0.028106748413946
0.047382493928593
0.047359199078909
0.047312090458808
0.047239966985884
0.047141938811612
0.047017210581482
0.046864901581852
0.046683911738865
0.04647285869418
0.046230128928184
0.045953872845678
0.045642075551223
0.045292466719552
0.044902640561462
0.044469862300545
0.043991356137947
0.043463886489473
0.04288440005381
0.042249088411104
0.041554832105029
0.040797059849717
0.039973055967301
0.039076980292132
0.038107549316599
0.037056308897681
0.035925585454489
0.034700394177282
0.033390298724276
0.031960783780491
0.030420844292367
0.049512247719331
0.049491586140769
0.049449783287314
0.049385708102176
0.049298468378379
0.049187196532747
0.049050898212132
0.048888338197927
0.048697982139839
0.048478043724112
0.048226471645522
0.047941014994784
0.047619126817876
0.047258083314257
0.046854782455623
0.046406033631388
0.045908124657196
0.04535747390367
0.044749665127277
0.044080926683964
0.043345923659013
0.042541167594655
0.041659855575611
0.040699849944104
0.039651446963531
0.03851615735994
0.037277184083463
0.035943419980326
0.03447661386667
0.032882925061166
0.051579200112596
0.051561537331624
0.051525783223971
0.051470899287964
0.051396004718283
0.051300169010722
0.051182295645319
0.051041030282058
0.050874706659385
0.050681387988401
0.050458844742475
0.05020461305221
0.049915892928804
0.049589664859344
0.049222482131969
0.048810756605927
0.048350315918709
0.047837054497086
0.047265953782394
0.046632569433121
0.045930793938216
0.045156305608257
0.044301323173235
0.043362718028126
0.042329537743952
0.041202171865814
0.039962179916108
0.038616999077177
0.037125666909659
0.035489123311136
0.053573247876743
0.053558901577773
0.053529846156473
0.053485158185886
0.053423981808072
0.053345335373146
0.053248034814629
0.053130625881131
0.05299133420029
0.052828099995648
0.052638545909483
0.05242002643103
0.052169520655131
0.051883745427833
0.05155894223192
0.051191156277866
0.050775785156036
0.050308221939081
0.049782866753806
0.049194604352918
0.048536561076254
0.04780353919625
0.046986786367461
0.046082051437182
0.045077213554375
0.043971144599306
0.042744098426808
0.041400997543244
0.03989912322163
0.038232434690714
0.055486445388035
0.055475687105919
0.055453879878431
0.055420236414803
0.055373941067733
0.055313975206617
0.055239085257575
0.055147740414014
0.055038085701873
0.054907968477216
0.054754896812726
0.054576080527107
0.054368319037401
0.054128108307804
0.053851421045984
0.053533979025337
0.053170792067602
0.052756793776443
0.052285838151077
0.051752170200797
0.051148166510513
0.05046775242898
0.049701186530046
0.048843040498657
0.047880001122879
0.04680935476994
0.045609957795507
0.044284046319193
0.042786455695465
0.041103441727989
0.057312858622539
0.057305920911879
0.057291821227132
0.057269919480236
0.057239453528126
0.057199384952576
0.057148409605242
0.057084943633507
0.0570070868533
0.056912633741563
0.056799014632739
0.05666332967523
0.056502242665537
0.056312078238302
0.056088595609501
0.055827247164393
0.055522711875497
0.055169521399628
0.054761035650499
0.054290923253767
0.053750835496317
0.053133899874262
0.05242930510296
0.051630557458716
0.050722799953489
0.049702100077416
0.048545316215948
0.047253083653079
0.045776226088753
0.044092842844596
0.059048376574222
0.059045443540706
0.059039426798385
0.059029827851509
0.059015946872667
0.058996746368898
0.058970888532596
0.058936748481918
0.058892408161461
0.05883565347468
0.05876389024532
0.058674155578974
0.058563027695168
0.058426704509357
0.058260794641376
0.058060533995677
0.05782034888639
0.057534422210807
0.057195711068402
0.056797363897819
0.056330396374197
0.05578722475152
0.055155977551406
0.054429298518161
0.053590299475388
0.052634338876742
0.051534417352199
0.050292583449337
0.048852044968293
0.047189776344995
0.060690560200675
0.060691697695368
0.060693975577273
0.060697051491157
0.060700303268298
0.060702691769178
0.060702861605407
0.060699181220283
0.060689739721335
0.060672312621291
0.060644301686096
0.060602734097388
0.060544177062454
0.060464754596135
0.060360000872886
0.060224978057173
0.06005396127041
0.05984079552541
0.059578185655529
0.059258710920965
0.058873015238256
0.058412640904068
0.057865116229368
0.057221964366864
0.05646484862861
0.05558806879154
0.05455922319022
0.053382095149089
0.051985092213645
0.050365365969202
0.062238708594082
0.062243757030411
0.06225409898827
0.062269778851994
0.062290321971367
0.062314584466129
0.062341157381036
0.062368500044731
0.062394810527354
0.062417868983696
0.062435052093082
0.062443363705284
0.062439380449655
0.062419174496414
0.062378273573475
0.062311603085501
0.062213414701158
0.062077204049913
0.061895639143633
0.061660520560602
0.061362595341364
0.06099183291026
0.060536442004189
0.059984912427867
0.05932113807971
0.058533793344012
0.057593928838837
0.05649213251126
0.05514650512648
0.053542914553227
0.063694201247045
0.063703161444105
0.063720839049361
0.063748353752488
0.063785594925993
0.063831156264975
0.063883426438958
0.063941151493082
0.064002681378733
0.064065890342436
0.064128287683891
0.064186960726883
0.064238518774734
0.064278983223854
0.064303864697052
0.064307939979682
0.064285485675485
0.064229722425445
0.06413352309952
0.063987935986049
0.063784256683239
0.063510358594269
0.063156412290932
0.062705524388295
0.062148514198582
0.061460346413725
0.060635123433371
0.05962694025697
0.058398149197732
0.056743875639068
0.010523510066329
0.0099451171147877
0.0093558579969074
0.0087568961559191
0.0081493105765991
0.0075339553142854
0.0069115357980923
0.0062827155035742
0.0056481818144716
0.0050086671372701
0.0043649428316862
0.0037178040563054
0.0030680575398664
0.002416514674935
0.0017639885961085
0.0011112934038916
0.00045924520183988
-0.00019133840117418
-0.00083964042893758
-0.0014848468902964
-0.0021261471910987
-0.0027627323852734
-0.0033937878696493
-0.0040184839438805
-0.0046359909818784
-0.0052457082141057
-0.005847073504115
-0.0064393681157162
-0.0070218319899555
-0.0075937476766901
-0.0081544586779677
-0.0087033570379274
-0.0092398710743916
-0.0097634560343886
-0.010273596218741
-0.010769801857121
-0.011251618450823
-0.011718617029447
-0.012170412336866
-0.012606637409204
-0.013026983599809
-0.013431139638238
-0.013818884712939
-0.01418994880828
-0.014544226761869
-0.014881457957569
-0.015201722230877
-0.01550470833016
-0.015790897102474
-0.016059903125794
0.010723885968973
0.010137178956675
0.0095380305966276
0.0089288766620743
0.0083113391715641
0.0076861992272904
0.0070538782376347
0.0064147975647806
0.0057695202432557
0.0051187466906191
0.0044632558496369
0.003803855469744
0.0031413592875705
0.0024765824128799
0.0018103453551572
0.0011434797674379
0.00047683091185883
-0.00018874422397697
-0.00085238173896645
-0.0015132156314124
-0.0021703839653566
-0.0028230373291636
-0.0034703566993031
-0.0041115778993083
-0.004745988369826
-0.005372624825801
-0.0059905059573038
-0.0065988712276778
-0.0071970477893344
-0.0077843653930104
-0.0083601497676565
-0.0089237383796194
-0.0094744980079561
-0.010011826566932
-0.010535162637387
-0.011043975362956
-0.011537781864142
-0.012016122727328
-0.01247860088852
-0.012924823191917
-0.013354489949941
-0.013767259908061
-0.01416295461269
-0.01454124784776
-0.014902131837341
-0.015245204847625
-0.015570724653785
-0.015877958965251
-0.016167533003825
-0.016437456604106
0.011100456458634
0.010491239628164
0.0098660002384935
0.009230072092852
0.0085864514791852
0.0079359436597524
0.0072785099498045
0.0066141812443513
0.0059433626896132
0.0052667721154524
0.0045852694480674
0.00389973449518
0.0032110244120809
0.0025199773753302
0.0018274309819106
0.0011342386970611
0.00044127578233228
-0.00025056566838811
-0.0009403860727646
-0.0016272857663941
-0.0023103691103141
-0.0029887457443468
-0.0036615270837702
-0.0043278156172358
-0.0049866943109881
-0.0056373148126248
-0.0062788746695467
-0.0069105772360468
-0.0075316544456316
-0.0081413670385048
-0.008739003521622
-0.0093238779419298
-0.0098953413167632
-0.01045277682087
-0.010995617054493
-0.011523323366932
-0.012035419683596
-0.012531441915727
-0.013011015591003
-0.01347373762809
-0.013919355793987
-0.014347496651385
-0.01475807616967
-0.01515067375509
-0.015525469203529
-0.015881801054732
-0.016220281581123
-0.016539418816
-0.016840236763588
-0.01711787724898
0.011632962156947
0.010988100121375
0.010322197279468
0.0096452117675499
0.0089621987679949
0.0082739002228573
0.0075795113990655
0.0068784512943671
0.0061708891308262
0.0054575700193257
0.004739463513981
0.0040175333607523
0.0032926708445882
0.0025657150521105
0.0018374950712976
0.0011088630150094
0.00038070478455746
-0.00034606798853652
-0.001070532242901
-0.001791762680236
-0.0025088352253205
-0.0032208281328091
-0.0039268253935283
-0.0046259235366961
-0.0053172432848265
-0.005999921842293
-0.0066731126564537
-0.0073359944175593
-0.0079877739346559
-0.0086276865737578
-0.0092550041062036
-0.0098690298331898
-0.010469111691526
-0.011054627784333
-0.011625013634347
-0.012179724570301
-0.012718295488715
-0.013240251617469
-0.013745245131565
-0.014232847815848
-0.014702865043176
-0.015154858664584
-0.015588866329111
-0.016004305506574
-0.016401612394986
-0.016779712030156
-0.017139708396486
-0.017478906291016
-0.017798783347519
-0.01808984382361
0.012310203104236
0.011618364523343
0.010898912645325
0.010168210549584
0.0094340374371967
0.0086969310105664
0.007954978321969
0.0072067607929385
0.0064521472057516
0.0056919357092997
0.0049272460154047
0.0041591447849587
0.0033885540835834
0.0026163006018538
0.0018431910372957
0.0010700657238668
0.00029781454626612
-0.00047263700928181
-0.0012403497656232
-0.0020043837591694
-0.002763802501302
-0.0035176741154599
-0.0042650743624986
-0.0050050901066687
-0.0057368228114239
-0.0064593899936412
-0.0071719303074373
-0.007873607429971
-0.0085636171581887
-0.0092411856040387
-0.009905579466349
-0.010556096775456
-0.011192086547868
-0.011812923620597
-0.012418051136357
-0.013006919545838
-0.013579082053909
-0.014134051764752
-0.014671519243964
-0.01519102272291
-0.01569244609366
-0.016175262598484
-0.016639672675773
-0.017084871002119
-0.017511633531675
-0.017918319354046
-0.018306685779403
-0.018672418064092
-0.019017639773466
-0.019326698788801
0.013125656323401
0.012376470826505
0.011591306038137
0.010794900592013
0.0099984677594425
0.0092021701644616
0.0084026169596925
0.0075973264030938
0.0067858206640687
0.0059689964108838
0.0051481763212384
0.0043245554022549
0.0034990872230749
0.0026725757542055
0.0018457950198063
0.001019567395208
0.00019478334473392
-0.0006276205708055
-0.0014466930911546
-0.0022614851695066
-0.003071053382347
-0.0038744589286479
-0.0046707694072436
-0.0054590616021316
-0.006238426619397
-0.0070079760655123
-0.0077668457092802
-0.0085141969011417
-0.0092492258383445
-0.0099711594178825
-0.010679269493396
-0.011372857628805
-0.012051284041334
-0.012713928809104
-0.013360255306793
-0.013989717638167
-0.01460190343184
-0.015196319384179
-0.015772715746732
-0.016330595181819
-0.016869951930487
-0.017390151957606
-0.017891613590473
-0.018373252853473
-0.018836290313569
-0.019278373799173
-0.019702109805746
-0.020101147951901
-0.020478467988435
-0.020810619749797
0.014075592837325
0.01325927274434
0.012396605464412
0.011522924936363
0.010653628928334
0.0097882736840876
0.0089215673212534
0.008049727967735
0.0071718989265953
0.0062891372298837
0.0054030300925321
0.0045149263777963
0.0036258083526613
0.0027364456703426
0.0018475703045708
0.00095998206305084
7.4570868180509e-05
-0.00080771660450745
-0.0016859194115766
-0.0025590828450763
-0.0034262606014494
-0.0042865115895764
-0.0051389012650904
-0.0059825048612849
-0.0068164140106542
-0.007639742375616
-0.0084516300064418
-0.0092512439923634
-0.010037789970707
-0.010810504441125
-0.011568674458081
-0.012311614650035
-0.013038708698336
-0.013749352114427
-0.014443043439252
-0.015119249938866
-0.015777612445939
-0.016417637345646
-0.01703916024773
-0.017641646441678
-0.018225240107659
-0.018789180292183
-0.019334171374602
-0.019858791108354
-0.020364830693231
-0.020849069480894
-0.021315189057424
-0.021754350208652
-0.022170624480945
-0.022530975783273
0.015158863315396
0.014266037185172
0.013314249582433
0.012351954504664
0.011399528305511
0.010455611651024
0.0095125229319958
0.0085649292052617
0.00761158017251
0.0066537747577606
0.0056934342890752
0.0047320869550752
0.0037707392992756
0.0028101138264949
0.0018508923985556
0.000893851164096
-6.0118599047929e-05
-0.0010100582834033
-0.0019549972494907
-0.0028939772839551
-0.0038260525650934
-0.004750283714604
-0.0056657386913965
-0.0065714961586091
-0.0074666532162375
-0.0083503311465212
-0.0092216806468425
-0.01007988124237
-0.010924156098095
-0.011753759740052
-0.01256800526363
-0.013366230697678
-0.014147856896682
-0.014912306053108
-0.015659129475154
-0.016387818382491
-0.017098090312476
-0.017789459829039
-0.018461881713744
-0.019114784545551
-0.019748514558519
-0.020362165385529
-0.020956814592707
-0.021530638459445
-0.0220861531718
-0.022619099259248
-0.0231345031376
-0.023620553892862
-0.024082727742695
-0.024476538726283
0.01637630567866
0.01539787562737
0.014345347564402
0.01328317505203
0.012237550776824
0.011205794315674
0.010177270248142
0.0091448338889336
0.0081068517123735
0.0070649699472318
0.0060215236952617
0.0049782443609512
0.0039361534727234
0.0028959134297326
0.0018581513566568
0.00082362254390615
-0.00020677445986554
-0.0012320648129992
-0.0022512668347877
-0.0032634191427964
-0.004267577573013
-0.0052628060199738
-0.0062481768308284
-0.0072227744260013
-0.0081857046637859
-0.0091361014485405
-0.010073132116024
-0.010995994831545
-0.011903938428405
-0.012796244122281
-0.01367226243027
-0.014531365395475
-0.015373026685653
-0.016196707380054
-0.017002032612165
-0.017788530554261
-0.018556025381878
-0.019304050487073
-0.020032723507636
-0.020741438644121
-0.02143081126702
-0.022099770429726
-0.022749876306078
-0.023378835649592
-0.023990078492451
-0.02457812338197
-0.025149666328787
-0.025689412273385
-0.026204628789451
-0.026637385897478
0.017730208221788
0.016657239422177
0.01549222294521
0.014318889872441
0.013170116127591
0.012041377543214
0.010918441167215
0.0097920867779454
0.0086603413674095
0.0075253312421514
0.0063898917281041
0.0052559772390387
0.0041246115210169
0.0029963829762131
0.0018718622576994
0.00075179185937285
-0.00036291275428172
-0.0014712532978037
-0.0025722328623087
-0.0036648851107717
-0.004748266668845
-0.0058214441365197
-0.006883494201626
-0.0079335073003143
-0.0089705990716326
-0.0099939192518859
-0.011002657362081
-0.011996036449413
-0.012973338289072
-0.013933877529131
-0.014877053456816
-0.015802282657749
-0.016709108425536
-0.017597043257498
-0.018465811068467
-0.019314990244445
-0.020144548163776
-0.020954048350834
-0.021743826506788
-0.022513244278304
-0.023263271905836
-0.023992651599485
-0.024703564589641
-0.025393170741466
-0.026066045882495
-0.026715285606459
-0.027349642336204
-0.027949790319432
-0.028525266813302
-0.029002614489144
0.019223801739571
0.018047467649951
0.016758031388005
0.015462207832332
0.014200429656491
0.012965662696887
0.011739349182495
0.010509940211836
0.0092752126698815
0.0080379358327737
0.0068015373451633
0.005568206823682
0.0043389498296611
0.003114268080867
0.0018946802777359
0.00068092978330848
-0.00052603662637288
-0.0017251872260456
-0.0029155040309699
-0.0040960109891895
-0.0052657607961254
-0.0064238187703492
-0.0075692637433548
-0.0087011923668359
-0.0098187303492608
-0.010921042517046
-0.012007341414743
-0.013076879089899
-0.014128977580589
-0.015162991194281
-0.016178378752826
-0.017174610371438
-0.018151317552804
-0.019108075614968
-0.020044735400536
-0.020960938417998
-0.021856839905289
-0.022732043295992
-0.023587171590619
-0.024421552581911
-0.025236620446929
-0.026030900925478
-0.026807371652397
-0.027562554954404
-0.028302462066961
-0.029018541390954
-0.029722075665324
-0.030389131381148
-0.031032122614878
-0.03155992956169
0.020860817191865
0.019572376738534
0.018146402180688
0.016716740811377
0.015332221267147
0.01398246476763
0.012643784407214
0.011302077469858
0.0099550176913206
0.0086062120740933
0.0072597719307971
0.0059181226294004
0.0045822263626479
0.003252487534693
0.0019293839945291
0.00061368169622971
-0.00069362230814478
-0.0019914504134598
-0.0032787551157796
-0.0045545439848654
-0.0058178579816861
-0.0070677510625808
-0.0083032934560978
-0.0095235801279137
-0.010727749896708
-0.011914994103066
-0.013084548868475
-0.014235684195396
-0.015367760159938
-0.016480177605057
-0.017572469746799
-0.018644168010531
-0.019695009806154
-0.020724642438318
-0.021733076787386
-0.022720027142672
-0.023685890078904
-0.02463031514536
-0.025554299509568
-0.026457129228173
-0.02734084106459
-0.028203702076321
-0.029049708708544
-0.029874630732823
-0.030686276564972
-0.031474186254562
-0.032252759407064
-0.032992831350857
-0.033710481653708
-0.034294733550902
0.022645003936722
0.021235828441177
0.019661074955594
0.018086305509155
0.016569498789812
0.015095901023868
0.013635826495409
0.012172449043395
0.010703559049075
0.0092338260417606
0.0077681297454837
0.006309116044619
0.0048576708143225
0.0034140966836488
0.0019788532028621
0.00055275862370635
-0.00086311531553804
-0.0022676288268269
-0.0036596943867497
-0.0050382929796183
-0.0064024455385414
-0.0077511853496426
-0.009083562541041
-0.010398648181003
-0.011695557269105
-0.012973523077686
-0.014231842924758
-0.015469798935992
-0.016686766594091
-0.017882188084109
-0.019055685073725
-0.020206856949804
-0.021335565770339
-0.022441536222296
-0.023524974576324
-0.024585673982887
-0.025624336096655
-0.026640654943979
-0.027636109928183
-0.028609925757165
-0.029564919481612
-0.030499039534988
-0.031417585684864
-0.032315431472834
-0.033202634183216
-0.034066512424539
-0.034925301264257
-0.035743916126327
-0.03654311314227
-0.037189843499179
0.024579686692264
0.023041312841761
0.021305539470321
0.019574623218835
0.017916287906815
0.016310155431728
0.014719632000888
0.013125086724449
0.011524733846593
0.009924556283907
0.0083302683456684
0.0067446995299245
0.0051686239169314
0.0036022472263298
0.0020460451730824
0.0005009280148872
-0.0010319284979943
-0.0025513037622598
-0.0040560536924342
-0.0055451155317502
-0.0070174747867495
-0.0084721282863587
-0.0099081036455874
-0.011324443323431
-0.012720188544085
-0.014094612407888
-0.015447032138239
-0.016776761861004
-0.018083221968381
-0.019365888401168
-0.020624460824891
-0.0218586047871
-0.023068324230899
-0.024253427360044
-0.025414351312598
-0.026550970078153
-0.027664358592048
-0.028754246682273
-0.029822723016726
-0.030868913813382
-0.031896639061565
-0.03290343936032
-0.033896284989224
-0.034868971154176
-0.035834380992521
-0.036777248702844
-0.037720540193431
-0.038622485324276
-0.039509803210405
-0.040225138739518
0.026667301692295
0.024991539513151
0.023082684967074
0.021185009693443
0.019376363577809
0.017629252081295
0.015899242199797
0.014163941749581
0.012422399421729
0.010682181297393
0.0089498746362444
0.007228431508909
0.0055184761305545
0.0038201376071478
0.0021339596333641
0.00046099298057682
-0.0011974497458205
-0.0028400439164077
-0.0044655684812154
-0.006072895887016
-0.0076609435560611
-0.0092286663741748
-0.010775051863614
-0.012299152640187
-0.01379965925804
-0.015276232264876
-0.016727997290549
-0.018154231012441
-0.019554452996028
-0.020928203505083
-0.022275245918746
-0.023595302280509
-0.024888524377808
-0.026154814751077
-0.027394861555802
-0.028608632795819
-0.029797630902179
-0.03096162274852
-0.032103428209985
-0.033222034887813
-0.034322515145368
-0.035401877451262
-0.036469214622573
-0.03751699478966
-0.038561665812985
-0.039584956331945
-0.040615712188396
-0.041604675894261
-0.042586235900096
-0.043376488990242
0.028908940462337
0.027088007045935
0.024994517074194
0.022920179139859
0.020953058556616
0.019056819838535
0.017178322186278
0.015292647012796
0.013400186681856
0.011510343460541
0.0096305639335005
0.0077638361793883
0.0059106075214436
0.0040709735673781
0.0022456142741815
0.00043577864362622
-0.0013570471837029
-0.0031314090681764
-0.0048859808989076
-0.0066195331360758
-0.0083308787687592
-0.010018850450016
-0.011682320938222
-0.013320216465785
-0.014932041216351
-0.016516353781007
-0.01807245532639
-0.01959974282067
-0.021097760712768
-0.022566064960263
-0.024004478666761
-0.025412798588813
-0.026791310543008
-0.028140037295792
-0.029459907655814
-0.030751036570602
-0.032015352400337
-0.033252729537954
-0.034466764096704
-0.03565634732908
-0.036827988930824
-0.037978086865855
-0.039118325900353
-0.040239549430058
-0.041362653197641
-0.042465818869851
-0.043585200776773
-0.044663241127728
-0.045744162365771
-0.046615450460568
0.031304254727025
0.029330538913477
0.027041413352394
0.024781593337143
0.022648987895114
0.020596040021666
0.01856012738776
0.016514432880932
0.014461380594049
0.01241242221754
0.010375761987561
0.0083543018728791
0.0063483011877811
0.0043578968875402
0.0023839950316162
0.00042810501103165
-0.0015080754042227
-0.0034229317591478
-0.0053150010810604
-0.0071829178345786
-0.0090253617692152
-0.010841043804668
-0.012628742009593
-0.014387324590465