/*--------------------------------*- C++ -*----------------------------------*\
| =========                 |                                                 |
| \\      /  F ield         | OpenFOAM: The Open Source CFD Toolbox           |
|  \\    /   O peration     | Version:  2112                                  |
|   \\  /    A nd           | Website:  www.openfoam.com                      |
|    \\/     M anipulation  |                                                 |
\*---------------------------------------------------------------------------*/
FoamFile
{
    version     2.0;
    format      ascii;
    arch        "LSB;label=32;scalar=64";
    class       surfaceScalarField;
    location    "18.4";
    object      phi;
}
// * * * * * * * * * * * * * * * * * * * * * * * * * * * * * * * * * * * * * //

dimensions      [0 3 -1 0 0 0 0];

oriented        oriented;

internalField   nonuniform List<scalar> 
43645
(
0.39512390587885
-5.0327895673642e-06
0.39513895864104
-1.5052731897561e-05
0.39516397155944
-2.5012885639774e-05
0.39519892040495
-3.4948811671961e-05
0.39524377438672
-4.4853947786844e-05
0.39529849969509
-5.4725274763866e-05
0.39536306246914
-6.4562741099785e-05
0.3954374289737
-7.4366472378103e-05
0.39552155971044
-8.4130705425748e-05
0.39561540852061
-9.3848779707246e-05
0.39571891570689
-0.00010350715670681
0.39583201533289
-0.00011309959727339
0.39595462729527
-0.00012261193454212
0.3960866764733
-0.00013204915098278
0.39622806929943
-0.00014139279991274
0.39637872872187
-0.00015065939692679
0.39653853348397
-0.00015980473730663
0.3967073989648
-0.00016886545661491
0.3968851443755
-0.00017774538706951
0.39707168835301
-0.00018654395432134
0.39726675131327
-0.0001950629374843
0.3974703085407
-0.00020355720492756
0.3976819068135
-0.00021159825056347
0.39790170166939
-0.00021979483376112
0.39812888920169
-0.00022718751026035
0.39836407922794
-0.00023519000417769
0.39860570664398
-0.0002416273939353
0.39885545614379
-0.00024974947782478
0.39911006144468
-0.00025460527921024
-0.0002635840001164
0.39937364546697
0.37294724533388
-9.7233362101349e-06
0.37296133277233
-2.9140120283231e-05
0.37298493728742
-4.8617349760572e-05
0.37301803205928
-6.8043532623664e-05
0.37306058481335
-8.7406651634808e-05
0.37311256512638
-0.00010670553850506
0.3731739454354
-0.00012594300191472
0.37324469926207
-0.00014512025195804
0.37332479435848
-0.00016422575593846
0.3734141912796
-0.0001832456560582
0.37351283654106
-0.00020215237461093
0.37362067011385
-0.00022093312763698
0.37373761854288
-0.00023956032230673
0.37386361449799
-0.00025804506588421
0.37399857452335
-0.00027635278613567
0.3741424330126
-0.00029451784797577
0.37429508272505
-0.00031245441246353
0.37445645269915
-0.00033023539417282
0.37462637882051
-0.00034767147261631
0.37480479337014
-0.00036495846866725
0.37499143630836
-0.00038170584093774
0.37518629455119
-0.00039841541331163
0.37538894011743
-0.00041424378267056
0.37559953455459
-0.00043038923687839
0.37581731228822
-0.00044496520997606
0.37604287562093
-0.00046075330288133
0.37627472981392
-0.00047348155287089
0.37651452121952
-0.0004895408496033
0.37675913210248
-0.00049921612932307
-0.0005170530157976
0.37701260115209
0.35201549285093
-1.4318613346322e-05
0.35202922351906
-4.2870736620736e-05
0.35205210492958
-7.149870830473e-05
0.35208413088234
-0.00010006943403009
0.35212528024457
-0.00012855596357105
0.352175526016
-0.00015695126083914
0.3522348428991
-0.0001852598372656
0.35230320884341
-0.00021348614981988
0.35238059799858
-0.00024161486606557
0.35246697803559
-0.00026962564933401
0.35256230194758
-0.00029747624427283
0.35266651601884
-0.0003251471578419
0.35277955341805
-0.00035259768179316
0.35290135603286
-0.00037984764214108
0.35303185171242
-0.00040684842833026
0.35317099041826
-0.00043365651744046
0.35331868100615
-0.00046014496495841
0.35347487307092
-0.00048642742428265
0.35363941958916
-0.00051221795693704
0.35381227680068
-0.00053781564674692
0.353993198927
-0.00056262793427422
0.354182201927
-0.00058741838053663
0.35437886441394
-0.00061090623702837
0.3545833876656
-0.00063491245590942
0.35479499410411
-0.00065657161581579
0.35501434841099
-0.00068010757679539
0.35523989903803
-0.00069903214672132
0.35547340312426
-0.00072304490263988
0.35571158037448
-0.00073739334721873
-0.0007641394367069
0.35595866682915
0.33225853091122
-1.8805520862887e-05
0.33227190503074
-5.6244809644139e-05
0.33229416233099
-9.3755961868906e-05
0.33232529812198
-0.0001312051788186
0.33236529431712
-0.00016855211342866
0.33241412701133
-0.00020578391080034
0.33247177490783
-0.0002429076906793
0.33253822188623
-0.00027993308627109
0.33261344949637
-0.00031684243549275
0.3326974333641
-0.00035360947752195
0.3327901336273
-0.0003901764691763
0.33289150375048
-0.00042651724386485
0.33300148459195
-0.00046257848730505
0.3331200293667
-0.0004983923819701
0.33324707987517
-0.00053389890296481
0.33338260585628
-0.00056918246557427
0.33352653615311
-0.00060407522970683
0.33367884656605
-0.00063873780580506
0.33383941064047
-0.00067278200060494
0.33400821515276
-0.00070662012869153
0.334185030023
-0.00073944277461649
0.33436990872385
-0.00077229705165133
0.33456243368252
-0.00080343116618162
0.33476285945341
-0.00083533819723287
0.33497038568237
-0.0008640978152029
0.33518576687913
-0.00089548874375449
0.33540737048045
-0.00092063571806122
0.33563713071364
-0.00095280510592993
0.33587156041569
-0.00097182302022785
-0.0010078586864965
0.33611527969589
0.31361044363668
-2.3191738490065e-05
0.3136234797341
-6.9280865694798e-05
0.31364515280272
-0.00011542898911888
0.31367546674436
-0.00016151907967545
0.31371440759026
-0.00020749291951678
0.31376195412491
-0.00025333040666969
0.31381808962771
-0.00029904315587366
0.31388280564096
-0.00034464906305273
0.31395609332258
-0.00039013008187552
0.31403793842249
-0.00043545454334901
0.31412831007087
-0.0004805480847016
0.31422717069586
-0.00052537783709868
0.31433447080551
-0.0005698785663563
0.31445017775356
-0.00061409930040193
0.31457425083671
-0.00065797195749674
0.31470668436706
-0.00070161596810166
0.31484743214314
-0.00074482297875643
0.31499650225537
-0.00078780789157102
0.31515379386572
-0.00083007358504669
0.31531933103186
-0.00087215726921865
0.3154929034272
-0.00091301514465699
0.31567461006849
-0.00095400366769667
0.31586403929769
-0.00099286037021081
0.31606151026326
-0.0010328091374566
0.31626619750935
-0.0010687850357982
0.31647896397479
-0.0011082551833257
0.31669808232645
-0.0011397540435532
0.31692569593381
-0.0011804186869999
0.31715806458034
-0.0012041916411012
-0.0012500436197763
0.31740024954079
0.29600898410831
-2.7473951005965e-05
0.29602166914597
-8.1965865514753e-05
0.29604273492182
-0.00013649472719594
0.296072197761
-0.00019098188161091
0.29611005038235
-0.0002453455044786
0.29615627576995
-0.0002995557587713
0.29621086317691
-0.00035363052836285
0.29627381368519
-0.00040759953783298
0.29634513040742
-0.00046144677169272
0.29642481175312
-0.00051513585762652
0.29651283834223
-0.00056857464348263
0.2966091840969
-0.00062172356240312
0.29671381196767
-0.00067450640879753
0.2968267068506
-0.00072699415587305
0.29694784964769
-0.00077911472803511
0.2970772641564
-0.00083103045097814
0.29721493450997
-0.00088249330724387
0.29736090700028
-0.00093378035730246
0.29751511224996
-0.00098427881069664
0.29767761792698
-0.0010346629225086
0.29784823918327
-0.0010836363775619
0.29802712725785
-0.0011328917189864
0.29821388138675
-0.001179614475953
0.29840889263602
-0.0012278203634828
0.29861131333264
-0.0012712057091561
0.29882212343771
-0.0013190652648753
0.299039498207
-0.0013571287891629
0.29926580308619
-0.0014067235425321
0.29949703052794
-0.0014354190598703
-0.0014917190448912
0.29973870597743
0.27939539700031
-3.1636400149829e-05
0.27940768189644
-9.4250728797574e-05
0.27942805982119
-0.0001568726192288
0.2794565621218
-0.00021948415002933
0.27949319015445
-0.00028197350574646
0.27953793276611
-0.00034429833986112
0.27959078692902
-0.00040648466164878
0.27965176529165
-0.00046857787171388
0.27972088524874
-0.00053056670103733
0.27979816035523
-0.00059241093724819
0.27988358532049
-0.00065399958287314
0.27997714827846
-0.00071528649535727
0.28007882772768
-0.0007761858339468
0.28018862967538
-0.00083679608024884
0.28030656096884
-0.00089704599899487
0.28043267970933
-0.00095714916957499
0.28056700597822
-0.0010168195548944
0.28070962991839
-0.0010764042766531
0.28086052008616
-0.0011351689581175
0.2810197936416
-0.0011939364578223
0.28118729835613
-0.0012511410722374
0.28136324331602
-0.0013088366590363
0.28154724662402
-0.0013636177642088
0.28173977587974
-0.0014203495992976
0.28193997020708
-0.0014714000165231
0.28214892935864
-0.001528024396166
0.28236474214198
-0.0015729415520443
0.28258999615051
-0.001631977530538
0.28282043057458
-0.0016658534639465
-0.0017333225483233
0.28306203409942
0.26371422716855
-3.5654090911047e-05
0.26372603523822
-0.00010605876919674
0.26374560226819
-0.00017643962006867
0.26377297638119
-0.00024685823432693
0.26380816889304
-0.00031716598954718
0.26385117586591
-0.00038730528532794
0.26390200358525
-0.00045731235434611
0.26396067811083
-0.00052725237134898
0.26402723321447
-0.00059712177955058
0.26410169983852
-0.00066687753688855
0.26418408925917
-0.0007363889799404
0.26427440647755
-0.00080560369085599
0.26437264870215
-0.00087442803647086
0.2644788465419
-0.00094299389854351
0.26459303713289
-0.0010112365692585
0.26471531740291
-0.0010794294193961
0.2648457490308
-0.0011472511631845
0.26498447123189
-0.001215126458519
0.26513149741573
-0.0012821951231992
0.2652869995831
-0.00134943860667
0.26545086660999
-0.0014150080809129
0.26562337005739
-0.0014813400883096
0.26580415771718
-0.001544405406046
0.26599377617601
-0.0016099680401403
0.26619136638481
-0.00166899020739
0.26639814511918
-0.0017348031124624
0.26661213728183
-0.0017869336965955
0.26683613922363
-0.0018559794543351
0.26706567322505
-0.0018953874479487
-0.0019748074660325
0.26730715816139
0.24891313515519
-3.9496532348066e-05
0.24892437156376
-0.00011729515275659
0.24894297816413
-0.00019504619556229
0.24896901992171
-0.00027289996739223
0.24900251886836
-0.00035066491223294
0.24904347936095
-0.00042826575447811
0.24909191827357
-0.00050575124415365
0.24914787649012
-0.00058321056564792
0.24921140575488
-0.00066065102272782
0.24928255614358
-0.0007380279045811
0.24936135761056
-0.00081519042660455
0.24944783435628
-0.00089208041681905
0.24954200523456
-0.0009685988956562
0.24964392857914
-0.0010449172245334
0.24975367586816
-0.0011209838402931
0.24987138678892
-0.0011971403225808
0.24999717000838
-0.0012730343655759
0.25013121832458
-0.0013491747579615
0.25027359709042
-0.0014245738726694
0.25042453770719
-0.0015003792072413
0.25058397967821
-0.0015744500360021
0.25075226052079
-0.0016496209150162
0.25092907121996
-0.0017212160894947
0.2511150372199
-0.0017959340243121
0.2513093216478
-0.0018632746195812
0.2515132497795
-0.001938731228324
0.25172481604755
-0.0019984999488235
0.25194699881807
-0.0020781622091095
0.25217516217055
-0.0021235507852102
-0.0022157379844875
0.25241609270536
0.23494272184475
-4.3130796355025e-05
0.23495328547128
-0.00012785875744599
0.23497077116614
-0.0002125318686788
0.23499526023348
-0.00029738901323719
0.23502678582069
-0.00038219047836712
0.23506536134634
-0.00046684125942529
0.23511101515679
-0.00055140503436233
0.23516380378259
-0.00063599917160587
0.23522379792875
-0.00072064514955415
0.23529106796957
-0.00080529792647788
0.23536566411421
-0.00088978655286264
0.23544763150886
-0.00097404779349068
0.23553701307201
-0.0010579804413528
0.23563389731032
-0.0011418014457889
0.23573839347381
-0.0012254799872172
0.23585068702323
-0.001309433855771
0.23597093838506
-0.0013932857116137
0.23609939739909
-0.0014776337564564
0.23623618822426
-0.0015613646826608
0.23638160510682
-0.0016457960748037
0.23653564834746
-0.0017284932619319
0.23669872339035
-0.0018126959432826
0.23687057995831
-0.0018930726430547
0.2370519197073
-0.0019772737589245
0.23724195327221
-0.0020533081702609
0.23744210030379
-0.0021388782456705
0.23765036847063
-0.0022067681015499
0.23786987929641
-0.0022976730209761
0.23809591849163
-0.0023495899670756
-0.0024553706196279
0.23833555114109
0.22175636236537
-4.652335402965e-05
0.22176615643207
-0.00013765280547975
0.22178236353505
-0.00022873895304828
0.22180508157737
-0.00032010703712944
0.22183435499916
-0.00041146388203506
0.22187020649652
-0.00050269273890756
0.22191267619
-0.00059387471031806
0.22196183664343
-0.00068515960776266
0.22201777810885
-0.00077658659807573
0.22208059171851
-0.00086811151950344
0.22215034867696
-0.0009595434950821
0.22222711603456
-0.0010508151351378
0.22231096240301
-0.0011418267942518
0.22240200791604
-0.0012328469435475
0.22250040206065
-0.0013238741169267
0.22260637782686
-0.0014154096073367
0.22272015116622
-0.0015070590366685
0.22284203101393
-0.0015995135900552
0.22297220653679
-0.0016915401917127
0.2231110368065
-0.0017846263308474
0.22325859321125
-0.0018760496532654
0.22341534941041
-0.001969452129113
0.22358113108471
-0.0020588543042219
0.22375671066057
-0.002152853321688
0.22394137580049
-0.0022379732972592
0.22413662130789
-0.0023341237401635
0.2243405213291
-0.0024106681100183
0.22455629032871
-0.0025134420080642
0.22477923563657
-0.0025725352629544
-0.0026927215661485
0.22501658659596
0.20931005180695
-4.9643195612927e-05
0.20931898797215
-0.00014658895443705
0.20933377152862
-0.00024352249328713
0.20935451669319
-0.00034085218555772
0.20938127907421
-0.00043822624711153
0.2094140906025
-0.00053550425139791
0.20945300296592
-0.00063278705814778
0.20949810419707
-0.00073026082346753
0.20954950340185
-0.00082798578765861
0.20960731202516
-0.00092592012775397
0.20967162251812
-0.0010238539732646
0.20974252391163
-0.0011217165140256
0.20982011106933
-0.0012194139376266
0.20990453603227
-0.0013172718923224
0.20999598973385
-0.0014153278046426
0.21009475292195
-0.0015141727817504
0.21020109949489
-0.0016134055961961
0.21031539783233
-0.0017138119142361
0.21043790722272
-0.0018140495691135
0.21056905176472
-0.0019157708599876
0.21070898385825
-0.002015981734186
0.21085824361566
-0.0021187118740124
0.21101675077886
-0.0022173614551466
0.21118534042345
-0.0023214429540863
0.21136341035971
-0.002416043221533
0.21155250613258
-0.0025232195011431
0.21175083007485
-0.0026089920406152
0.21196162884826
-0.0027242407700861
0.21218034983495
-0.0027912562387978
-0.0029266202646726
0.2124142485451
0.19756225684306
-5.2463495356212e-05
0.19757025987778
-0.00015459197502526
0.19758349623956
-0.00025675884088768
0.19760209550477
-0.00035945143662577
0.19762612381511
-0.00046225454342629
0.19765562174204
-0.0005650021643531
0.19769065170678
-0.00066781700903376
0.19773131596738
-0.00077092507026281
0.19777774112654
-0.00087441093316216
0.19783005739982
-0.00097823638742253
0.19788837721808
-0.0010821737780775
0.19795281068591
-0.0011861499684814
0.19802347878396
-0.001290082022494
0.19810056434816
-0.0013943574434221
0.19818429953137
-0.0014990629749634
0.19827501135893
-0.001604884596522
0.19837303246257
-0.0017114266872658
0.19847878907217
-0.0018195685113818
0.19859261421978
-0.0019278747044836
0.19871499516775
-0.0020381517958469
0.19884617428535
-0.0021471608398931
0.19898675414893
-0.002259291725817
0.19913676696823
-0.002367374262888
0.19929709929074
-0.0024817752651556
0.19946729467115
-0.0025862385907264
0.19964892030061
-0.0027048451194998
0.19984037564781
-0.0028004473769607
0.20004486884634
-0.0029287339580545
0.20025812303327
-0.0030045104156911
-0.0031557568362786
0.20048725961564
0.18647377679042
-5.496290398641e-05
0.18648078834198
-0.00016160351399058
0.18649238155472
-0.00026835204096363
0.1865086998011
-0.00037576967030853
0.186529818573
-0.00048337330268794
0.18655578599239
-0.00059096957108682
0.18658667380252
-0.00069870480657759
0.18662259653156
-0.00080684778669567
0.18666369607134
-0.00091551046040211
0.18671011902557
-0.0010246593290981
0.18676199578958
-0.001134050529622
0.18681945530655
-0.0012436094729733
0.18688264285634
-0.0013532695599226
0.18695176999316
-0.0014634845679006
0.18702710846678
-0.0015744014363786
0.18710902824975
-0.0016868043673327
0.18719791968609
-0.0018003181116235
0.18729426317731
-0.001915911990695
0.18739846729608
-0.0020320788115617
0.18751107835087
-0.0021507628390565
0.18763243616148
-0.0022685186391396
0.18776319921448
-0.002390054767613
0.18790352993982
-0.0025077049772494
0.1880543522181
-0.0026325975326236
0.18821539257645
-0.0027472789385092
0.18838820586658
-0.0028776583992253
0.18857146353526
-0.0029837050355021
0.18876825521951
-0.0031255256324741
0.18897473042103
-0.0032109856078775
-0.0033787219601036
0.18919769555489
0.17600761231901
-5.7126452361542e-05
0.1760135934716
-0.00016758465514987
0.17602347937005
-0.00027823792787469
0.17603742514103
-0.0003897154296943
0.17605551406366
-0.00050146221374674
0.17607780027786
-0.00061325577367691
0.17610436292142
-0.00072526743857132
0.17613532623051
-0.00083781108417168
0.17617084445938
-0.00095102867769904
0.17621107742676
-0.0010648922848619
0.17625617057475
-0.0011791436660242
0.17630626860692
-0.0012937074935218
0.17636153829184
-0.0014085392332558
0.1764222159466
-0.0015241622110465
0.17648860978818
-0.0016407952664255
0.17656112803353
-0.0017593226011632
0.17664021570045
-0.0018794057671391
0.17672640161243
-0.0020020978913403
0.17682016957401
-0.0021258467619905
0.17692211850967
-0.0022527117636878
0.17703269120224
-0.0023790913209226
0.17715259288472
-0.0025099564394724
0.17728213264932
-0.0026372447315072
0.17742225396014
-0.0027727188333043
0.17757290393839
-0.0028979289068849
0.17773558641748
-0.0030403408686573
0.17790932488555
-0.003157443494182
0.17809700120226
-0.0033132019401046
0.17829535620485
-0.0034093406018141
-0.0035940416052088
0.1785106758593
0.16612884148115
-5.8945943652783e-05
0.16613377369915
-0.00017251686251133
0.1661419216717
-0.00028638588967293
0.16615344985376
-0.00040124360094375
0.16616844736798
-0.00051645971720367
0.16618697254051
-0.00063178093542895
0.16620910960441
-0.00074740449176829
0.16623498949096
-0.00086369096000209
0.16626477533134
-0.0009808145074311
0.16629863636848
-0.0010987533113098
0.16633672941704
-0.0012172367039392
0.16637921105903
-0.0013361891248109
0.16642626572248
-0.0014555938860123
0.16647814966211
-0.0015760461399331
0.16653520266503
-0.0016978482586357
0.16659786465115
-0.0018219845765531
0.166666630768
-0.0019481718733446
0.16674207060427
-0.0020775377170309
0.16682474052914
-0.0022085166764434
0.16691528346022
-0.0023432546845131
0.16701424823924
-0.002478056089952
0.16712237510772
-0.0026180832981877
0.16724013441027
-0.0027550040246138
0.1673684676468
-0.0029010520606681
0.16750758005208
-0.0030370413033158
0.16765887748029
-0.0031916382882833
0.167821822794
-0.0033203887995813
0.16799898403372
-0.0034903631718181
0.16818789286568
-0.0035982494261025
-0.0038002181972127
0.16839406946607
0.15680450274059
-6.0419984894976e-05
0.15680838779729
-0.00017640190907939
0.15681480049615
-0.00029279857833764
0.15682391201798
-0.0004103551126145
0.15683581528125
-0.00052836297044037
0.15685057073454
-0.00064653637879863
0.15686826511015
-0.00076509885762229
0.15688903274824
-0.00088445858845798
0.15691304182194
-0.0010048235716445
0.15694046687756
-0.0011261783575179
0.1569714718999
-0.0012482417169505
0.15700622093838
-0.0013709381539454
0.15704491132455
-0.0014942842628596
0.15708781359981
-0.0016189484057965
0.15713529293899
-0.0017453275884409
0.15718781336624
-0.0018745049943831
0.15724591306322
-0.0020062715609748
0.15731019388788
-0.0021418185323901
0.15738127943502
-0.0022796022144655
0.15745984648143
-0.0024218217219906
0.15754654963666
-0.0025647592365549
0.15764215038129
-0.0027136840344917
0.15774729263521
-0.0028601462706035
0.15786289028368
-0.0030166497015728
0.1579894472118
-0.0031635982242683
0.15812820952553
-0.0033304005951832
0.15827918143552
-0.0034713607030473
0.15844446730725
-0.0036556490372808
0.15862264459264
-0.0037764267054217
-0.0039956475990873
0.15881807400133
0.14800348458763
-6.1553633366469e-05
0.14800634328924
-0.00017926060071575
0.14801105468661
-0.00029750996578216
0.14801779395334
-0.00041709436964029
0.1480266556719
-0.00053722467966495
0.14803770036544
-0.00065758106333295
0.14805101460128
-0.00077841308486398
0.14806673269971
-0.00090017667863777
0.14808502378361
-0.0010231146476522
0.14810606345505
-0.0011472180213009
0.14813001841853
-0.0012721966729976
0.14815705568295
-0.0013979754109996
0.14818738003437
-0.0015246086069817
0.14822127028362
-0.0016528386477049
0.14825910933049
-0.0017831666279792
0.14830137738021
-0.0019167730367288
0.14834864628249
-0.002053540455922
0.14840154118421
-0.0021947134268436
0.14846074405433
-0.0023388050774941
0.14852695638482
-0.0024880340456372
0.14860093244351
-0.0026387352887501
0.1486834422085
-0.0027961937933894
0.14877530778786
-0.0029520118443596
0.14887739021761
-0.0031187321262281
0.1489905309762
-0.0032767389782582
0.14911575000646
-0.0034556196213005
0.14925371392857
-0.0036093246213505
0.14940585592771
-0.0038077910328321
0.14957217268609
-0.0039427434601993
-0.0041787379245865
0.14975526301596
0.13969642151801
-6.2357881793015e-05
0.13969829172463
-0.00018113079665863
0.13970136385055
-0.00030058208118653
0.13970581431681
-0.00042154482594993
0.13971173731585
-0.00054314766950758
0.13971919134387
-0.00066503508289746
0.1397282603024
-0.00078748203574403
0.13973907527533
-0.00091099164462687
0.13975180220789
-0.0010358415739494
0.13976661345001
-0.0011620292576423
0.13978367389205
-0.001289257109667
0.13980314916058
-0.0014174506743788
0.13982524572392
-0.0015467051653198
0.13985024476633
-0.001677837685118
0.13987853793394
-0.0018114597906038
0.13991061407311
-0.001948849170877
0.13994706640099
-0.0020899927788195
0.13998853637726
-0.002236183398208
0.14003574902707
-0.0023860177225975
0.14008942710174
-0.002541712115897
0.1401504065545
-0.0026997147375284
0.14021946700561
-0.0028652542410458
0.14029758721179
-0.0030301320477136
0.14038557567106
-0.003206720583337
0.14048460240846
-0.0033757657141726
0.14059544641484
-0.0035664636267981
0.14071949697911
-0.0037333751851578
0.14085742948022
-0.0039457235336596
0.14101076558238
-0.0040960795618173
-0.0043481280903194
0.14118015574949
0.13185559490566
-6.2848045939767e-05
0.13185652900477
-0.00018206488229197
0.13185804764264
-0.00030210070565599
0.13186032624047
-0.00042382341133671
0.13186345635517
-0.0005462777730517
0.13186749247388
-0.00066907119178945
0.13187251355981
-0.00079250311318135
0.13187864442217
-0.00091712249967753
0.13188604419009
-0.0010432413356278
0.1318948780627
-0.0011708631248146
0.13190530488415
-0.0012996839263165
0.1319174844613
-0.0014296302471078
0.1319316192301
-0.0015608399299368
0.13194798683432
-0.0016942052852345
0.131966978223
-0.0018304511752282
0.13198908371559
-0.0019709546593904
0.13201490338505
-0.0021158124442582
0.13204509049965
-0.0022663705089088
0.13208039063307
-0.002421317852365
0.13212155349976
-0.0025828749793154
0.13216945811854
-0.002747619353584
0.13222492694518
-0.002920723065645
0.13228902187054
-0.0030942269718566
0.13236258173343
-0.0032802804459151
0.13244695629298
-0.0034601402743097
0.13254283335466
-0.0036623406899142
0.13265213517908
-0.0038426770116116
0.13277501352037
-0.0040686018771725
0.13291442155003
-0.0042354875932209
-0.0045026064184131
0.13306889987734
0.12445484028725
-6.3041976697323e-05
0.12445489999277
-0.00018212456747864
0.12445496930012
-0.00030216999215575
0.12445521930175
-0.00042407339323367
0.12445573663412
-0.00054679508751795
0.12445657102885
-0.00066990557056826
0.12445779439349
-0.00079372646378212
0.12445952082913
-0.00091884892295473
0.12446189889737
-0.0010456193929503
0.12446508402275
-0.0011740482403895
0.12446922678137
-0.0013038266759674
0.12447447708266
-0.0014348805399764
0.12448102847783
-0.0015673913170382
0.12448914764823
-0.0017023244477263
0.12449921646792
-0.0018405199871147
0.12451171734389
-0.001983455527622
0.12452724488558
-0.0021313399783209
0.124546457491
-0.0022855831069121
0.12457009940888
-0.0024449597631954
0.12459895366189
-0.0026117292258205
0.12463389203857
-0.0027825577245095
0.12467583193675
-0.0029626629590201
0.12472579738228
-0.0031441924137013
0.12478484557314
-0.0033393286343141
0.12485419323672
-0.0035294879366911
0.12493488543566
-0.0037430328888652
0.12502857763143
-0.0039363692083053
0.12513587442533
-0.0041758986723436
0.12526017483866
-0.0043597880073056
-0.0046418943078577
0.12539946272868
0.11746946256421
-6.2960734637375e-05
0.11746871467685
-0.00018137664711665
0.11746745159957
-0.00030090688050362
0.11746583453027
-0.00042245629064011
0.11746394249697
-0.00054490302305505
0.11746182169321
-0.00066778473806409
0.11745953729582
-0.00079144203998868
0.11745718757447
-0.00091649917726297
0.11745490551039
-0.0010433373062455
0.11745283293832
-0.0011719756470071
0.11745111080796
-0.001302104525275
0.11744987664431
-0.0014336463566673
0.11744931361861
-0.0015668282721404
0.11744966882402
-0.0017026796342029
0.11745131000757
-0.0018421611519565
0.11745469634312
-0.0019868418446383
0.11746041357761
-0.0021370571945533
0.11746910527157
-0.0022942747830064
0.1174815133136
-0.0024573677879347
0.11749843229345
-0.0026286481892413
0.11752071270836
-0.0028048381240787
0.1175493692685
-0.0029913195052112
0.11758529514687
-0.0031801182796623
0.11762994029969
-0.0033839737764399
0.11768401476769
-0.00358356239574
0.11774977933944
-0.0038087974534108
0.11782707134262
-0.0040136612057013
0.11791928713866
-0.0042681144633943
0.1180254622207
-0.0044659630840583
-0.0047678884158177
0.11815145633602
0.11087615921564
-6.2635008953836e-05
0.11087468410414
-0.00017990148509901
0.11087221776774
-0.00029844049156291
0.11086890714563
-0.00041914561703348
0.11086482707678
-0.00054082290504268
0.11086001758453
-0.00066297519932127
0.11085453464441
-0.00078595905591373
0.11084845939552
-0.00091042388659629
0.11084191143118
-0.001036789301911
0.11083501697332
-0.0011650811505024
0.11082790346083
-0.001294990975158
0.11082069224736
-0.0014264351062777
0.11081355415138
-0.0015596901397765
0.11080670810572
-0.0016958335525498
0.11080050561131
-0.0018359586219174
0.11079536532396
-0.0019817015220193
0.11079187166615
-0.0021335635019825
0.11079061883661
-0.002293021919362
0.11079237867062
-0.0024591275888256
0.1107978802468
-0.0026341497335806
0.11080804002035
-0.0028149978675076
0.11082380974801
-0.0030070892047144
0.11084611348355
-0.0032024219892955
0.11087653692364
-0.0034143971929446
0.11091538899256
-0.0036224144435037
0.11096638939272
-0.0038597978348757
0.11102687341274
-0.0040741452092597
0.11110644491181
-0.0043476859474753
0.11119049877451
-0.0045500169319895
-0.0048833538620884
0.11130596423854
0.10465293829382
-6.210727381766e-05
0.10465084917746
-0.00017781229958841
0.10464731840481
-0.00029490964845322
0.10464248900533
-0.00041431614841545
0.10463645832391
-0.00053479215686236
0.10462925625804
-0.00065577306929834
0.10462090249318
-0.00077760522931587
0.10461146081586
-0.00090098214954821
0.10460104283859
-0.0010263712664907
0.10458976443944
-0.0011538026944012
0.10457774720776
-0.00128297368742
0.10456510066207
-0.0014137885052186
0.10455197841089
-0.0015465678337731
0.10453855987555
-0.0016824149628858
0.10452516968139
-0.0018225683739277
0.10451217112798
-0.0019687029154034
0.10450015126218
-0.0021215435837252
0.1044896267793
-0.0022824973851291
0.10448144438542
-0.002450945145047
0.10447616366287
-0.0026288689631869
0.10447494275838
-0.0028137769176443
0.10447831715963
-0.003010463563593
0.10448785058444
-0.0032119553748033
0.10450413291585
-0.0034306794882667
0.10452884039567
-0.0036471218904895
0.10456377532478
-0.0038947327346045
0.10460856612767
-0.0041189359859286
0.10467368523755
-0.0044128050334831
0.10474240211858
-0.0046187337899436
-0.0049884822390287
0.10484753052315
0.098778986660983
-6.1375591592544e-05
0.098776423558124
-0.00017524911532931
0.098771950673378
-0.00029043668180772
0.098765765660538
-0.00040813105511813
0.098758008288398
-0.00052703470640317
0.098748743760175
-0.00064650846493713
0.098737863086815
-0.00076672448171639
0.098725458287284
-0.00088857727723291
0.098711609599688
-0.0010125225071759
0.098696405058587
-0.0011385980822984
0.098679967737308
-0.0012665362956741
0.09866241517543
-0.0013962358732617
0.098643889601505
-0.0015280421901697
0.098624535648144
-0.0016630609402286
0.098604636456576
-0.0018026691136015
0.098584496011146
-0.0019485624018635
0.098564676188569
-0.0021017236940616
0.098545614862706
-0.0022634359936037
0.098528211898603
-0.0024335421174571
0.098512847750898
-0.0026135047548889
0.098500959414158
-0.0028018885240546
0.098492500380258
-0.003002004477015
0.098490078061227
-0.0032095330075292
0.098492318527097
-0.0034329199102569
0.098504490566295
-0.0036592938902776
0.098521623223719
-0.0039118653572761
0.098554088941157
-0.0041514016729709
0.098590404658468
-0.0044491207232114
0.098647694695477
-0.0046760237993949
0.098775473885268
-0.0051162613962255
0.39473402651912
0.0046396189702239
0.39025391112646
0.0044801154146109
0.38593781184416
0.0043160993041745
0.38179013164894
0.0041476802173091
0.37781513527218
0.0039749963991196
0.37401694808763
0.0037981872073348
0.37039954800731
0.0036174001034663
0.36696675602457
0.0034327920063401
0.36372222890103
0.0032445271475033
0.3606694542261
0.0030527746993196
0.35781174690598
0.0028577073448217
0.35515224579503
0.0026595011360132
0.35269391028459
0.0024583355357373
0.35043951651634
0.0022543937938518
0.34839165356921
0.002047862972859
0.34655271947074
0.0018389341244209
0.34492491723723
0.0016278022594941
0.34351025078841
0.0014146664749471
0.34231052063698
0.0011997301775049
0.3413273194567
0.00098320120642728
0.34056202673444
0.00076529274828639
0.34001580212247
0.00054622463802827
0.3396895707188
0.00032623142957752
0.33958395349179
0.00010561725292025
0.33969962587333
-0.00011567235577865
0.34003691012743
-0.00033728422832647
0.34059576244812
-0.00055885229507371
0.34137599241855
-0.00078022994477966
0.34237718655642
-0.0010011941123589
0.34359869939837
-0.0012215128164221