/*--------------------------------*- C++ -*----------------------------------*\
| =========                 |                                                 |
| \\      /  F ield         | OpenFOAM: The Open Source CFD Toolbox           |
|  \\    /   O peration     | Version:  2112                                  |
|   \\  /    A nd           | Website:  www.openfoam.com                      |
|    \\/     M anipulation  |                                                 |
\*---------------------------------------------------------------------------*/
FoamFile
{
    version     2.0;
    format      ascii;
    arch        "LSB;label=32;scalar=64";
    class       volVectorField;
    location    "4.7";
    object      U;
}
// * * * * * * * * * * * * * * * * * * * * * * * * * * * * * * * * * * * * * //

dimensions      [0 1 -1 0 0 0 0];

internalField   nonuniform List<vector> 
22000
(
(1.000001268642 -4.2731391993569e-05 0)
(1.0000448614486 -0.00013489911256775 0)
(1.0001321030202 -0.00022970817077939 0)
(1.0002652559528 -0.00032382563980744 0)
(1.000444276265 -0.00041560805882342 0)
(1.0006677438283 -0.00050438435617888 0)
(1.0009337846451 -0.00058986269028864 0)
(1.0012405399602 -0.00067189017236664 0)
(1.001586259061 -0.00075036247952935 0)
(1.001969258369 -0.00082525680935668 0)
(1.0023878595597 -0.00089660781888753 0)
(1.0028404165842 -0.00096455036785278 0)
(1.0033253053539 -0.0010291718291836 0)
(1.0038409759772 -0.00109060051079 0)
(1.0043858587842 -0.0011488005966711 0)
(1.0049584615996 -0.0012039290341235 0)
(1.0055572300425 -0.0012559709696626 0)
(1.0061808639957 -0.001305449320955 0)
(1.0068280001338 -0.00135241469385 0)
(1.0074978514467 -0.0013978167610168 0)
(1.008189262077 -0.0014410985765318 0)
(1.00890203285 -0.0014835915087372 0)
(1.0096346316471 -0.0015230612128146 0)
(1.0103873467422 -0.0015623375350045 0)
(1.0111572751979 -0.0015959094196421 0)
(1.0119456287498 -0.0016312344288476 0)
(1.0127468376917 -0.0016553056446906 0)
(1.0135647315689 -0.0016872304273767 0)
(1.0143889413388 -0.0016959713560482 0)
(1.015229228039 -0.0017292042712887 0)
(1.0000002883018 -0.00012526324151122 0)
(1.0000432683953 -0.00039584634545885 0)
(1.0001300620448 -0.00067460591187806 0)
(1.0002627943482 -0.00095168282859487 0)
(1.0004415342403 -0.0012221774220796 0)
(1.0006650460719 -0.0014840728575813 0)
(1.0009315902277 -0.0017364851496381 0)
(1.0012393973208 -0.0019789440923033 0)
(1.0015867673747 -0.0022111186233695 0)
(1.001972070589 -0.0024329140003224 0)
(1.0023936606338 -0.0026444137435854 0)
(1.0028499615737 -0.002846007845179 0)
(1.0033393725739 -0.0030379462484621 0)
(1.0038604406476 -0.003220580668669 0)
(1.0044115684928 -0.0033937751979795 0)
(1.0049914046618 -0.0035579709412821 0)
(1.005598263584 -0.0037131368183417 0)
(1.0062311348133 -0.0038608175771595 0)
(1.0068883103634 -0.0040011987670941 0)
(1.0075696538402 -0.0041370754320757 0)
(1.0082731392317 -0.0042669182277932 0)
(1.0090000720793 -0.0043946037100642 0)
(1.0097467781363 -0.0045136876646788 0)
(1.0105170244548 -0.0046321663552722 0)
(1.011302701347 -0.0047340912673368 0)
(1.0121130423079 -0.0048406908599031 0)
(1.0129302477627 -0.0049148035540197 0)
(1.0137767478775 -0.0050108269829218 0)
(1.014614524881 -0.005040549193832 0)
(1.0154951010583 -0.0051390415042184 0)
(1.0000003259757 -0.0002031528652648 0)
(1.0000440403835 -0.00064229615696485 0)
(1.000132045753 -0.0010952093418355 0)
(1.000266308818 -0.0015459618276916 0)
(1.0004468905685 -0.001986577235377 0)
(1.0006726847577 -0.0024137408831627 0)
(1.0009421122771 -0.0028259867893726 0)
(1.0012535566306 -0.0032225279915083 0)
(1.0016054334488 -0.0036027979321703 0)
(1.001996238254 -0.0039666152927064 0)
(1.0024244148324 -0.0043140936261928 0)
(1.0028885319492 -0.0046458634827361 0)
(1.0033870544863 -0.004962311328819 0)
(1.0039187162084 -0.0052639866803461 0)
(1.0044819071813 -0.0055506057968499 0)
(1.0050755516355 -0.0058228766580109 0)
(1.0056977739102 -0.0060807045479007 0)
(1.0063480857887 -0.0063266761439921 0)
(1.0070241923305 -0.0065610364176234 0)
(1.0077270958965 -0.0067884995007636 0)
(1.0084532320554 -0.0070064115143505 0)
(1.0092065324278 -0.0072214084180874 0)
(1.0099794841067 -0.0074224627248005 0)
(1.0107820163748 -0.00762325342731 0)
(1.0115966496035 -0.0077964518394569 0)
(1.0124471220933 -0.0079783677720647 0)
(1.0132933113064 -0.0081054804710864 0)
(1.0141917695587 -0.0082707074065255 0)
(1.0150530713154 -0.0083235208818944 0)
(1.0160067284251 -0.0084940092560708 0)
(1.0000003418333 -0.0002775739456055 0)
(1.0000445080816 -0.00087739690684036 0)
(1.0001333438446 -0.0014962466013236 0)
(1.0002688546994 -0.0021127284568645 0)
(1.0004511934919 -0.0027161021811694 0)
(1.0006793997452 -0.0033018800634278 0)
(1.0009520552384 -0.0038680643669467 0)
(1.0012677216464 -0.0044135788697644 0)
(1.0016249693376 -0.0049376379804057 0)
(1.0020224769638 -0.0054399866266827 0)
(1.0024588228413 -0.0059207689640707 0)
(1.0029327872674 -0.0063808554201992 0)
(1.0034429320101 -0.0068207484835627 0)
(1.0039882651672 -0.007241188787274 0)
(1.0045671667733 -0.0076417042752413 0)
(1.0051789711288 -0.0080232731446448 0)
(1.0058215391598 -0.008385665117452 0)
(1.0064951497099 -0.0087325448575276 0)
(1.0071966728838 -0.0090640735740556 0)
(1.0079287757393 -0.0093870003490043 0)
(1.0086856891743 -0.0096972436570255 0)
(1.0094751497063 -0.010004548407541 0)
(1.0102841105838 -0.010292646052973 0)
(1.0111313899768 -0.010581816604907 0)
(1.0119860286724 -0.0108317865105 0)
(1.012892682714 -0.011096165304611 0)
(1.0137791964516 -0.01128140042529 0)
(1.0147511607194 -0.011524272870658 0)
(1.0156455240063 -0.011603488136947 0)
(1.01670341278 -0.011856727646648 0)
(1.0000003597413 -0.00034840893145496 0)
(1.0000448066662 -0.0011008856022628 0)
(1.0001341345697 -0.0018774154475172 0)
(1.0002704183677 -0.0026517470104094 0)
(1.000453954296 -0.0034107027616454 0)
(1.0006839824556 -0.0041487644217791 0)
(1.0009592963381 -0.0048634621499102 0)
(1.0012786921803 -0.0055534589813742 0)
(1.0016409498319 -0.0062177622089661 0)
(1.002044996689 -0.0068560512689719 0)
(1.0024895981976 -0.0074684974996193 0)
(1.0029738210804 -0.0080562129099455 0)
(1.0034963657811 -0.0086197930537282 0)
(1.0040566114728 -0.0091601630333127 0)
(1.0046529376647 -0.0096766032363223 0)
(1.0052852298626 -0.010170366334607 0)
(1.0059510173429 -0.010640996177983 0)
(1.0066516040651 -0.011093313023726 0)
(1.0073827901185 -0.01152723711018 0)
(1.0081494463184 -0.011951757303836 0)
(1.0089429557129 -0.012360989913883 0)
(1.009776033846 -0.012768285330114 0)
(1.0106284677655 -0.01315124473044 0)
(1.0115306314059 -0.013537979076491 0)
(1.0124341413128 -0.013873139115632 0)
(1.0134107256004 -0.014230625868063 0)
(1.0143469357772 -0.014481898658922 0)
(1.0154114890208 -0.014814816710525 0)
(1.0163467785275 -0.014925968778023 0)
(1.0175367724904 -0.015277568505093 0)
(1.0000003778796 -0.0004154695183288 0)
(1.0000448243066 -0.0013121843395563 0)
(1.0001340718082 -0.0022378110960122 0)
(1.0002702653131 -0.0031618898233472 0)
(1.0004538814041 -0.0040691361145858 0)
(1.0006844209012 -0.0049531379983273 0)
(1.0009609528471 -0.0058110101751446 0)
(1.0012825733692 -0.0066411847872054 0)
(1.0016483312344 -0.007442475926993 0)
(1.0020574704276 -0.008214508567701 0)
(1.0025090014198 -0.008957481382883 0)
(1.0030023575256 -0.0096727543448392 0)
(1.003536428102 -0.010361000137505 0)
(1.0041110652284 -0.011023324327907 0)
(1.0047246677824 -0.011658704591696 0)
(1.0053778200733 -0.012268674691661 0)
(1.0060676650567 -0.012852461132865 0)
(1.0067967928166 -0.013416139619721 0)
(1.0075597109612 -0.013959208337712 0)
(1.0083640249958 -0.014493166616517 0)
(1.0091976581329 -0.015009866370946 0)
(1.0100794533293 -0.015526892903932 0)
(1.0109804828757 -0.016014620041879 0)
(1.0119452501263 -0.01651048553565 0)
(1.0129042053855 -0.016941500061678 0)
(1.01396202797 -0.017405475527034 0)
(1.0149552545462 -0.01773293392107 0)
(1.0161290060723 -0.018171501174811 0)
(1.0171116465255 -0.018322007060927 0)
(1.0184589280633 -0.018791418010303 0)
(1.0000003954407 -0.00047846849282201 0)
(1.000044419665 -0.0015103777454874 0)
(1.0001327341576 -0.0025758884212773 0)
(1.0002675674008 -0.0036410256888665 0)
(1.0004496091227 -0.0046887475914101 0)
(1.0006786735955 -0.0057118921403183 0)
(1.0009541652054 -0.0067072205881538 0)
(1.0012755468526 -0.0076729697222526 0)
(1.001642195634 -0.0086077795789213 0)
(1.0020537441654 -0.0095112378917538 0)
(1.002509504791 -0.01038357769076 0)
(1.0030093630772 -0.01122642028681 0)
(1.0035524460712 -0.012040504398782 0)
(1.0041391890507 -0.012827117758556 0)
(1.00476803417 -0.013584885660794 0)
(1.0054404257904 -0.014315638218645 0)
(1.0061530802306 -0.015018194289898 0)
(1.0069101492567 -0.015700004165681 0)
(1.0077046514899 -0.016359952815208 0)
(1.0085474645926 -0.017012378544992 0)
(1.0094224794694 -0.017646341948141 0)
(1.0103557901921 -0.018284398776617 0)
(1.0113082813409 -0.018888438678303 0)
(1.0123410618211 -0.019506947914937 0)
(1.0133598651455 -0.020046416882439 0)
(1.0145078875685 -0.020632673747699 0)
(1.0155635018152 -0.021048545921296 0)
(1.0168605535904 -0.021611236427963 0)
(1.0178955503415 -0.021810404867435 0)
(1.0194223298233 -0.022420573752187 0)
(1.0000004102608 -0.00053702782347892 0)
(1.00004347336 -0.001694272525998 0)
(1.0001297574414 -0.0028896142086187 0)
(1.0002615863409 -0.0040862933603621 0)
(1.000439902418 -0.0052658835803838 0)
(1.0006648820414 -0.0064206282638019 0)
(1.0009363188704 -0.0075470045506592 0)
(1.0012541060857 -0.0086430956625928 0)
(1.0016180081906 -0.0097073935389932 0)
(1.0020281162043 -0.010739472104288 0)
(1.00248410405 -0.011739611066185 0)
(1.0029863948624 -0.012709713825006 0)
(1.0035344115069 -0.013650579106417 0)
(1.0041292809362 -0.014563691160958 0)
(1.0047695260194 -0.015447277334334 0)
(1.0054576025469 -0.016303497372226 0)
(1.0061897773438 -0.017130675051517 0)
(1.0069720241112 -0.017937781247221 0)
(1.007795700087 -0.018722886654397 0)
(1.0086754686771 -0.019503541553468 0)
(1.0095906654525 -0.020265442884515 0)
(1.0105757024986 -0.021036935252004 0)
(1.0115799456573 -0.021770090305559 0)
(1.0126834354908 -0.022526287956379 0)
(1.0137639454582 -0.023188428475349 0)
(1.0150083866646 -0.023914803563892 0)
(1.0161295543565 -0.024433215749128 0)
(1.0175612090277 -0.025141120021893 0)
(1.0186522088986 -0.025400363273967 0)
(1.0203775691835 -0.026177455901708 0)
(1.0000004210851 -0.00059071910696973 0)
(1.0000418845415 -0.0018625272102355 0)
(1.0001248460604 -0.0031767080066434 0)
(1.0002517197736 -0.0044944687662417 0)
(1.0004237368722 -0.0057963858752931 0)
(1.0006414850495 -0.007074272936434 0)
(1.0009051967072 -0.0083243983470303 0)
(1.0012152514562 -0.009544739873475 0)
(1.0015718605295 -0.010733674298244 0)
(1.0019756381251 -0.011890791863221 0)
(1.0024266820269 -0.013016440827182 0)
(1.0029260215648 -0.014112832811437 0)
(1.0034734448111 -0.015180836474255 0)
(1.0040708491919 -0.016222142922325 0)
(1.0047169127564 -0.017234571085545 0)
(1.0054152031115 -0.01822061950757 0)
(1.0061615962142 -0.019178103251825 0)
(1.0069640663125 -0.02011759173945 0)
(1.0078122645664 -0.021036235748071 0)
(1.008725032899 -0.021955099283331 0)
(1.009676804272 -0.022856008501813 0)
(1.0107111780439 -0.023773906109484 0)
(1.0117649771443 -0.024649772596376 0)
(1.0129390535736 -0.025559555024576 0)
(1.0140806648924 -0.026359831400992 0)
(1.0154246483362 -0.027245466130025 0)
(1.0166122679351 -0.027882149465214 0)
(1.018186550325 -0.028758529438891 0)
(1.0193356811592 -0.029091522066207 0)
(1.0212749314491 -0.030064509436815 0)
(1.0000004271998 -0.00063911138357965 0)
(1.0000395806095 -0.0020137910620224 0)
(1.0001177836139 -0.0034348692743966 0)
(1.0002375228279 -0.0048622855171173 0)
(1.0004003445435 -0.0062760109457662 0)
(1.0006072949785 -0.0076675979288438 0)
(1.0008590910363 -0.0090331847546134 0)
(1.0011566468459 -0.010370695807524 0)
(1.0015006679294 -0.011678429966214 0)
(1.0018923478497 -0.012956031773844 0)
(1.0023322659768 -0.014203946931769 0)
(1.0028221210216 -0.015424730552671 0)
(1.003362138738 -0.016619341606171 0)
(1.0039550441842 -0.017789690640796 0)
(1.0045997771246 -0.0189332110542 0)
(1.0053010533481 -0.020052721439566 0)
(1.0060545249783 -0.021145614384993 0)
(1.0068701588442 -0.022224013325116 0)
(1.0077361451302 -0.023284265175066 0)
(1.0086754551633 -0.024350996929757 0)
(1.0096579386007 -0.025402006968264 0)
(1.0107362607159 -0.02647926241422 0)
(1.0118352351626 -0.02751193636734 0)
(1.0130759630011 -0.028591362433075 0)
(1.0142765433508 -0.029546615353177 0)
(1.0157180151587 -0.030610653638237 0)
(1.0169725025135 -0.031383965888985 0)
(1.0186908450257 -0.032452137420059 0)
(1.0198993175517 -0.032874571704724 0)
(1.0220632440767 -0.03407528712689 0)
(1.0000004284293 -0.00068181357828767 0)
(1.0000365174652 -0.0021468414201523 0)
(1.0001084381824 -0.0036620054046872 0)
(1.00021872296 -0.0051867466473351 0)
(1.0003692464691 -0.0067008235602212 0)
(1.0005615510235 -0.0081956958874573 0)
(1.0007968777928 -0.0096674518047985 0)
(1.0010767153514 -0.011114015821615 0)
(1.0014023011589 -0.012533648627442 0)
(1.0017754536747 -0.013926091622146 0)
(1.0021972801495 -0.015291919552884 0)
(1.0026701986558 -0.016634077036751 0)
(1.0031949384163 -0.017953636212621 0)
(1.0037750920997 -0.019252767659191 0)
(1.00440998025 -0.020528537898857 0)
(1.0051054292647 -0.021784111434148 0)
(1.0058571678736 -0.023016534588432 0)
(1.006676847565 -0.024239466881554 0)
(1.0075520272361 -0.025448646108005 0)
(1.0085086843153 -0.026672108988153 0)
(1.0095143016716 -0.027883965126823 0)
(1.0106273010885 -0.029132740809134 0)
(1.0117662955186 -0.030336731968863 0)
(1.0130635782339 -0.031600619975301 0)
(1.0143231971778 -0.032730222905826 0)
(1.0158488867915 -0.033988144408932 0)
(1.0171805588089 -0.034924310938538 0)
(1.0190220010167 -0.036197061959727 0)
(1.020316167764 -0.036743678936284 0)
(1.0226935774309 -0.038196850358683 0)
(1.0000004242208 -0.00071850747952713 0)
(1.0000326803806 -0.0022606883480789 0)
(1.0000967658142 -0.0038564141839434 0)
(1.0001952249106 -0.0054653858294085 0)
(1.00033026373 -0.007067534485729 0)
(1.0005039446345 -0.0086543926736732 0)
(1.0007180622421 -0.010222077786395 0)
(1.0009747078025 -0.01176856838812 0)
(1.0012756770979 -0.013292128739197 0)
(1.0016234430735 -0.014792641491599 0)
(1.0020196742762 -0.016270846049472 0)
(1.0024675430858 -0.017730125914631 0)
(1.0029683284176 -0.019171695439326 0)
(1.0035265238588 -0.020598041734586 0)
(1.0041419200895 -0.022005883402906 0)
(1.0048214526324 -0.023398806932396 0)
(1.0055611273882 -0.024773540122121 0)
(1.0063741307686 -0.026145386443357 0)
(1.0072478899072 -0.027509530328826 0)
(1.0082108613897 -0.028897476773892 0)
(1.0092292122952 -0.03027977356817 0)
(1.0103660326966 -0.031711436646487 0)
(1.0115353128737 -0.033100010950398 0)
(1.0128793055213 -0.034563695080643 0)
(1.0141892512606 -0.035884502059161 0)
(1.0157913522653 -0.037355630091158 0)
(1.0171933350209 -0.038475320241897 0)
(1.0191512704618 -0.039974837026108 0)
(1.0205320953688 -0.040673574609279 0)
(1.0231141903456 -0.042403359734725 0)
(1.0000004147669 -0.00074897153551847 0)
(1.0000280837126 -0.002354649532766 0)
(1.0000828085432 -0.0040169136793249 0)
(1.0001671074489 -0.0056964566750262 0)
(1.000283510992 -0.0073737528346772 0)
(1.000434612123 -0.0090405651995513 0)
(1.0006227737626 -0.01069311607841 0)
(1.0008507038765 -0.012329490847141 0)
(1.0011207686344 -0.013947999623611 0)
(1.00143610913 -0.015548710738784 0)
(1.0017989717833 -0.017132565585288 0)
(1.0022133034346 -0.018703435715507 0)
(1.0026809583201 -0.02026271323838 0)
(1.0032073571333 -0.021813262457026 0)
(1.0037928016673 -0.023351487545601 0)
(1.004445373203 -0.024881491896746 0)
(1.0051614308438 -0.026399722407158 0)
(1.0059557318546 -0.027923276759639 0)
(1.006815693911 -0.029446809700121 0)
(1.0077722844888 -0.031005443262079 0)
(1.0087905341893 -0.032566227958989 0)
(1.0099382637967 -0.034190682959091 0)
(1.0111249813171 -0.035775844215999 0)
(1.0125032517713 -0.037453310933213 0)
(1.0138510926235 -0.038981461361848 0)
(1.0155188163227 -0.040684198641855 0)
(1.0169794830811 -0.042007805707068 0)
(1.0190465621996 -0.043756983849236 0)
(1.0205040379378 -0.044631683508927 0)
(1.0232859702278 -0.04666785186275 0)
(1.0000003998937 -0.00077309552347388 0)
(1.0000227687695 -0.0024283953729804 0)
(1.0000666903302 -0.0041429209224626 0)
(1.0001346136189 -0.0058790492970384 0)
(1.0002293783947 -0.0076181454055848 0)
(1.0003541061589 -0.0093523485977575 0)
(1.0005117285767 -0.011078055211715 0)
(1.0007055690165 -0.012793505658189 0)
(1.0009385606542 -0.01449709630078 0)
(1.0012145094743 -0.016189123848667 0)
(1.0015362387012 -0.017870769244294 0)
(1.0019084697411 -0.01954643949202 0)
(1.0023336375173 -0.021217744691105 0)
(1.0028180938269 -0.022887988525117 0)
(1.0033626700229 -0.024553311758496 0)
(1.0039766074666 -0.02621842828223 0)
(1.0046566627977 -0.027879576051872 0)
(1.0054192017248 -0.029555772637352 0)
(1.006251699177 -0.031241236089832 0)
(1.0071877020274 -0.032974791250646 0)
(1.0081911650862 -0.034720158975351 0)
(1.0093348017425 -0.036545343970478 0)
(1.0105236619768 -0.038337149307211 0)
(1.0119208806175 -0.040240616087326 0)
(1.0132914774351 -0.041990337878323 0)
(1.0150094216079 -0.043942395071253 0)
(1.0165158455827 -0.045486735099245 0)
(1.0186756864834 -0.047513413055972 0)
(1.0202034674601 -0.048577508043559 0)
(1.0231600245016 -0.050957197739891 0)
(1.000000380633 -0.00079088623936934 0)
(1.0000168004346 -0.002481970974683 0)
(1.0000486034967 -0.0042344853787037 0)
(1.0000981273366 -0.0060131380216377 0)
(1.0001684968959 -0.0078005059918591 0)
(1.0002633469876 -0.0095892342680807 0)
(1.0003861645929 -0.011375952555459 0)
(1.0005408715469 -0.013159096948793 0)
(1.0007309494277 -0.014937186290336 0)
(1.0009608481012 -0.016710784236438 0)
(1.0012339486017 -0.018481346465398 0)
(1.0015557257834 -0.020253859078126 0)
(1.0019291806763 -0.022030190573939 0)
(1.0023615767267 -0.023814146128063 0)
(1.0028542716019 -0.025601664170612 0)
(1.0034176574026 -0.027398164048183 0)
(1.0040489043662 -0.029199764602508 0)
(1.004765993624 -0.031027514159659 0)
(1.0055565011144 -0.032875328116139 0)
(1.0064565722284 -0.034785788712497 0)
(1.0074291990788 -0.036719517410086 0)
(1.0085518914471 -0.038751028964881 0)
(1.0097257849932 -0.040756971750378 0)
(1.0111236518934 -0.042896718892219 0)
(1.0124999389626 -0.044878992986559 0)
(1.0142481981521 -0.047097482089374 0)
(1.0157851289111 -0.048875962768043 0)
(1.0180170677094 -0.051205868929142 0)
(1.019602592798 -0.052476189310596 0)
(1.0227071512357 -0.055226321978661 0)
(1.000000357191 -0.00080246514349015 0)
(1.000010266474 -0.0025157825065646 0)
(1.0000287969765 -0.0042922971307267 0)
(1.0000581480184 -0.0060995955985129 0)
(1.0001016910962 -0.007921770165948 0)
(1.0001635526385 -0.0097520879908666 0)
(1.0002477475773 -0.011587464348899 0)
(1.0003587625356 -0.013426562243765 0)
(1.0005005947465 -0.015268052699668 0)
(1.0006783001081 -0.017112797143174 0)
(1.0008957828163 -0.018962555922139 0)
(1.0011592292409 -0.020822930525759 0)
(1.0014721731568 -0.022696084783293 0)
(1.0018427449213 -0.024586384051849 0)
(1.0022728045833 -0.026489632081846 0)
(1.002773854084 -0.02841204537123 0)
(1.0033434754344 -0.030349729310626 0)
(1.0040012214621 -0.032325859629489 0)
(1.0047348236994 -0.034334192605739 0)
(1.005582900767 -0.036421152416402 0)
(1.006507792378 -0.038544389803129 0)
(1.007591250168 -0.040785298366062 0)
(1.0087316856192 -0.043009833727017 0)
(1.0101096542787 -0.045393616416094 0)
(1.0114721614559 -0.047616594406374 0)
(1.0132284930745 -0.050114982518097 0)
(1.014775851365 -0.052140952236678 0)
(1.0170577205188 -0.054793482502508 0)
(1.018682283843 -0.056288841430577 0)
(1.021901837962 -0.059431658408487 0)
(1.0000003271988 -0.0008080671749149 0)
(1.0000032677796 -0.0025305545492248 0)
(1.0000076080576 -0.0043175245540687 0)
(1.0000152936409 -0.0061400397085734 0)
(1.0000299609122 -0.0079838905596721 0)
(1.0000561880242 -0.0098430531127265 0)
(1.000098481376 -0.011714768428189 0)
(1.0001618473181 -0.013597951509535 0)
(1.0002507535725 -0.015491451621727 0)
(1.0003708070602 -0.017396450830213 0)
(1.0005263874715 -0.019315038377648 0)
(1.0007243296764 -0.021253458018049 0)
(1.0009686523485 -0.023214200841799 0)
(1.0012682796802 -0.025202245500015 0)
(1.0016255366042 -0.027213328148754 0)
(1.0020529510191 -0.029254552701358 0)
(1.0025485173264 -0.031322109315312 0)
(1.003133230793 -0.033441412098878 0)
(1.0037950963427 -0.035606139458018 0)
(1.0045748817471 -0.037866764094636 0)
(1.0054347626947 -0.040177879301659 0)
(1.0064598883839 -0.042628437895815 0)
(1.0075472479202 -0.04507300228216 0)
(1.0088835001875 -0.047705092253204 0)
(1.0102103921467 -0.050174443643134 0)
(1.011950849273 -0.052961806069834 0)
(1.0134850260695 -0.05524661785942 0)
(1.0157913808161 -0.058237500582404 0)
(1.0174319898493 -0.059974477563808 0)
(1.0207308955948 -0.063526044784315 0)
(1.0000002970821 -0.00080799873006053 0)
(0.99999589599619 -0.0025273604646664 0)
(0.99998528585506 -0.0043120306624098 0)
(0.99997017556394 -0.0061369161038192 0)
(0.99995436272164 -0.0079897946432484 0)
(0.99994284375291 -0.0098654307716947 0)
(0.99994057660486 -0.011761411981807 0)
(0.99995303136529 -0.013676909462681 0)
(0.99998509369333 -0.015610963341938 0)
(1.0000428529575 -0.017565086138263 0)
(1.0001311073847 -0.019541712211032 0)
(1.0002572565151 -0.021547740909609 0)
(1.0004257458131 -0.023586017065149 0)
(1.0006461941658 -0.025662175150252 0)
(1.0009213435996 -0.02777194856551 0)
(1.0012646302733 -0.029923414115172 0)
(1.0016744507926 -0.032112933727959 0)
(1.0021730685617 -0.034368270239851 0)
(1.002748853971 -0.036683081783931 0)
(1.0034443812062 -0.039112077656954 0)
(1.0042220068068 -0.041606799861847 0)
(1.0051696224982 -0.0442641428401 0)
(1.0061835660206 -0.046927261913618 0)
(1.0074556045079 -0.049808102799042 0)
(1.0087234859882 -0.052526355756921 0)
(1.0104223512625 -0.055607838263434 0)
(1.0119176072926 -0.058159338163533 0)
(1.0142199150725 -0.061500758231645 0)
(1.0158500270471 -0.063493276658172 0)
(1.0191903977915 -0.067462001892512 0)
(1.0000002644319 -0.00080266394348205 0)
(0.99998828245383 -0.0025074370321538 0)
(0.99996220929777 -0.0042778972426377 0)
(0.99992346420196 -0.0060931820970953 0)
(0.99987599946934 -0.0079431881844144 0)
(0.99982517456164 -0.0098235201555048 0)
(0.99977634090169 -0.011732137184237 0)
(0.99973536403975 -0.013668472073043 0)
(0.9997074911468 -0.015631767042297 0)
(0.99969921499453 -0.017623861794294 0)
(0.99971569185972 -0.01964754707432 0)
(0.99976478282891 -0.02171036936082 0)
(0.99985129398957 -0.023815552305552 0)
(0.99998541287562 -0.025969400526504 0)
(1.0001702434933 -0.028167715489193 0)
(1.0004199824533 -0.030419601949807 0)
(1.0007334062432 -0.032721690500582 0)
(1.0011338448494 -0.035104159157124 0)
(1.0016100755131 -0.037560735893996 0)
(1.0022061609833 -0.040150450976683 0)
(1.0028848200939 -0.042821973797656 0)
(1.0037361895084 -0.045680230128041 0)
(1.0046564143833 -0.048557377992195 0)
(1.0058415134845 -0.051683780076381 0)
(1.0070263389794 -0.05464977013381 0)
(1.0086564519182 -0.058026298854105 0)
(1.010085514297 -0.060848435052134 0)
(1.0123519181611 -0.064547502034605 0)
(1.0139435273442 -0.066807253925318 0)
(1.0172864330235 -0.071196711179187 0)
(1.0000002295677 -0.00079251151175264 0)
(0.99998052026972 -0.0024722492972575 0)
(0.999938686846 -0.0042176157274002 0)
(0.99987581447096 -0.0060122750071123 0)
(0.99979597303203 -0.0078483754464702 0)
(0.99970483373474 -0.0097223887763723 0)
(0.99960808711723 -0.011632649320264 0)
(0.99951191440383 -0.013578837307547 0)
(0.99942186552282 -0.015560405651307 0)
(0.99934474467258 -0.01757949873039 0)
(0.99928601302625 -0.019639282174406 0)
(0.99925387133774 -0.021747912784025 0)
(0.99925343165096 -0.023909043010641 0)
(0.99929528677815 -0.026129617493198 0)
(0.99938286994452 -0.028405614446876 0)
(0.99953092605769 -0.030747143691965 0)
(0.99973862751237 -0.033151251179147 0)
(1.0000300719103 -0.035650464262959 0)
(1.000394525372 -0.03823877754367 0)
(1.0008771165327 -0.040979409367991 0)
(1.0014411235727 -0.043818596457705 0)
(1.0021783629728 -0.046869047475363 0)
(1.0029852674046 -0.049952767763052 0)
(1.0040611204309 -0.053318022023202 0)
(1.0051392011 -0.056527039338411 0)
(1.0066726146657 -0.060194860749997 0)
(1.0080088021812 -0.063287852255074 0)
(1.0102010930557 -0.067342483793538 0)
(1.0117343257503 -0.069893446211957 0)
(1.0150260268263 -0.074678361497835 0)
(1.0000001928459 -0.0007780192574393 0)
(0.99997269675043 -0.0024233343673568 0)
(0.9999149924327 -0.004133818928227 0)
(0.99982780397269 -0.0058978836589351 0)
(0.99971528560164 -0.007710025857873 0)
(0.99958335894801 -0.0095675966229184 0)
(0.99943800080491 -0.011469302560106 0)
(0.99928561902872 -0.013415040761755 0)
(0.99913201894339 -0.015404481789143 0)
(0.99898419986598 -0.01744001766278 0)
(0.99884789006625 -0.019525207969662 0)
(0.99873145561472 -0.02166872301925 0)
(0.99864030534878 -0.023874732607999 0)
(0.99858519459841 -0.026150720272534 0)
(0.99856997070818 -0.028493053311576 0)
(0.99860956580737 -0.030912696053599 0)
(0.99870377325305 -0.033407424564148 0)
(0.99887684883858 -0.036011771893527 0)
(0.99911897714494 -0.038720503690302 0)
(0.99947539151176 -0.041600370236783 0)
(0.99991067826042 -0.044596225338149 0)
(1.0005169969886 -0.047827469295326 0)
(1.0011923508087 -0.051107827847327 0)
(1.0021373767646 -0.054701814834923 0)
(1.0030864531201 -0.05814617720906 0)
(1.0044952755524 -0.062097186881104 0)
(1.0057143917041 -0.065458746619115 0)
(1.0077909113407 -0.069853644898614 0)
(1.0092464525901 -0.072725004563866 0)
(1.0124304794217 -0.07786261838483 0)
(1.0000001501096 -0.000759692379775 0)
(0.99996488992289 -0.0023622959402538 0)
(0.9998913786079 -0.0040292140789397 0)
(0.99977996065047 -0.0057537556797854 0)
(0.99963484145487 -0.0075328563807329 0)
(0.99946213393271 -0.0093647607266921 0)
(0.99926805455591 -0.011248549029839 0)
(0.99905913647278 -0.013184301379768 0)
(0.99884141801189 -0.015171914965099 0)
(0.99862196529221 -0.01721395270194 0)
(0.998406784043 -0.019314396804376 0)
(0.99820415402651 -0.021482271270899 0)
(0.99801983953901 -0.023722379906172 0)
(0.99786434449064 -0.02604251423706 0)
(0.99774221717027 -0.028439736947254 0)
(0.99766790421862 -0.030925477274102 0)
(0.99764253538163 -0.033498821086535 0)
(0.99768922167967 -0.036195512834462 0)
(0.99780052591846 -0.039012245014818 0)
(0.99801931798621 -0.042017679406421 0)
(0.99831426795588 -0.045157732056449 0)
(0.998773673094 -0.048555437504276 0)
(0.99930194034632 -0.052020673390778 0)
(1.0000945865233 -0.055829511060848 0)
(1.0008951000929 -0.059499246039289 0)
(1.0021521980779 -0.063722308375925 0)
(1.003232433917 -0.067346947175756 0)
(1.0051583741134 -0.072068313210539 0)
(1.0065117933075 -0.075263853869763 0)
(1.0095362153054 -0.080724606586696 0)
(1.0000000947157 -0.00073812238825791 0)
(0.99995724837879 -0.0022909893282515 0)
(0.99986824508769 -0.0039068169760352 0)
(0.9997329963763 -0.0055839179482388 0)
(0.99955570190844 -0.0073217684103419 0)
(0.99934262443119 -0.0091194753582886 0)
(0.99910018699504 -0.010976546545356 0)
(0.99883496199949 -0.012893267299598 0)
(0.99855320880446 -0.01486977611553 0)
(0.9982619240534 -0.016908722317174 0)
(0.99796743099149 -0.019014525195624 0)
(0.99767766131276 -0.021196397321707 0)
(0.99739888191416 -0.023459967663171 0)
(0.99714085360723 -0.025813108078064 0)
(0.99690929263996 -0.028253997943581 0)
(0.99671717189417 -0.030793892158111 0)
(0.9965681290271 -0.033433900296999 0)
(0.99648194592888 -0.036209518929196 0)
(0.99645637883388 -0.039121233417877 0)
(0.99652716821789 -0.042236534983148 0)
(0.99667350656614 -0.045507244171602 0)
(0.99696987638157 -0.049053286323674 0)
(0.9973405318545 -0.052690952215653 0)
(0.99795660311719 -0.056695170292158 0)
(0.99859556360143 -0.060580109335798 0)
(0.99966851454587 -0.065060402414025 0)
(1.0005939496165 -0.068936483883794 0)
(1.0023402222819 -0.074000310238113 0)
(1.0035774882174 -0.07747691127242 0)
(1.0063963900952 -0.083316927298314 0)
(1.0000000079564 -0.00071412045865623 0)
(0.99995004325561 -0.0022120054344721 0)
(0.99984628554102 -0.0037707287675747 0)
(0.99968799916318 -0.0053937305729206 0)
(0.99947937164049 -0.0070832027587127 0)
(0.9992267715935 -0.0088386932801933 0)
(0.99893669730389 -0.010660250347982 0)
(0.99861576860805 -0.012548434371824 0)
(0.9982705053366 -0.014503702234351 0)
(0.99790776748855 -0.016528798776797 0)
(0.99753415538449 -0.018628556608034 0)
(0.99715702266224 -0.020812202083781 0)
(0.99678313423197 -0.023086327666453 0)
(0.99642121430655 -0.025458814928577 0)
(0.99607853864735 -0.027929607815273 0)
(0.9957660416359 -0.030509474417742 0)
(0.9954908221838 -0.033202552297403 0)
(0.99526746790001 -0.036042513625483 0)
(0.99510139224352 -0.039035935233309 0)
(0.99501608355267 -0.042244741712243 0)
(0.99500878244282 -0.045633751166595 0)
(0.99512666167696 -0.049308331688817 0)
(0.99533496953863 -0.053110108819887 0)
(0.99574577241812 -0.057285436256199 0)
(0.99622298577049 -0.061385738730457 0)
(0.99706018982884 -0.066099159003456 0)
(0.99783568933681 -0.070224468339918 0)
(0.99933497671718 -0.075671450185733 0)
(1.0004738189104 -0.079337074047162 0)
(1.0030582672025 -0.08589679647141 0)
(0.99999984776414 -0.0006892825733379 0)
(0.99994304365881 -0.0021303581080125 0)
(0.99982546750814 -0.0036302207764833 0)
(0.99964499124289 -0.0051973736039658 0)
(0.99940623270049 -0.0068370576123172 0)
(0.99911567711171 -0.0085483214055733 0)
(0.99877935991774 -0.010331659189826 0)
(0.99840403382652 -0.012187537864038 0)
(0.99799644170631 -0.014116698800646 0)
(0.99756337849186 -0.016122093278244 0)
(0.99711166882828 -0.018209040634336 0)
(0.99664810521075 -0.020386864538397 0)
(0.99617959241722 -0.022663285586669 0)
(0.99571374328121 -0.025046128655302 0)
(0.99525888005296 -0.0275374265481 0)
(0.99482429778494 -0.030147427221797 0)
(0.99442005212709 -0.032884633851491 0)
(0.99405643152172 -0.035780662197816 0)
(0.99374542138338 -0.038851501477522 0)