/*--------------------------------*- C++ -*----------------------------------*\
| =========                 |                                                 |
| \\      /  F ield         | OpenFOAM: The Open Source CFD Toolbox           |
|  \\    /   O peration     | Version:  2112                                  |
|   \\  /    A nd           | Website:  www.openfoam.com                      |
|    \\/     M anipulation  |                                                 |
\*---------------------------------------------------------------------------*/
FoamFile
{
    version     2.0;
    format      ascii;
    arch        "LSB;label=32;scalar=64";
    class       volScalarField;
    location    "13";
    object      p;
}
// * * * * * * * * * * * * * * * * * * * * * * * * * * * * * * * * * * * * * //

dimensions      [0 2 -2 0 0 0 0];

internalField   nonuniform List<scalar> 
22000
(
0.021774308182398
0.021752880518666
0.021708606243577
0.021640381861515
0.021547689780365
0.021430566793062
0.021289299056588
0.02112419477279
0.020935501681223
0.020723419371556
0.020488139841576
0.020229882895343
0.019948906729621
0.019645509762705
0.019320017959923
0.01897279054743
0.018604206997819
0.01821468960761
0.017804674017975
0.017374656609358
0.016925125312634
0.016456664707339
0.015969798810927
0.015465229541018
0.01494348060764
0.014405433072265
0.013851521301224
0.01328293785519
0.012699813172508
0.012103902707031
0.022176446706719
0.022153800836972
0.022107973359152
0.022037965771295
0.021943220354311
0.021823705751532
0.021679658464612
0.021511359776276
0.021319044267875
0.021102902695396
0.020863116018274
0.020599891217608
0.020313471441797
0.020004141803181
0.019672213401501
0.019318035149294
0.018941971562229
0.018544438343764
0.01812585345744
0.017686713970301
0.01722748400848
0.016748764691035
0.01625104141026
0.01573506260732
0.015201274677305
0.014650659592173
0.01408347956678
0.013501120817833
0.012903300472465
0.012292034015819
0.022914511517186
0.022890967692206
0.022843415929704
0.022770925246085
0.022672980265588
0.022549547578836
0.022400837259419
0.022227100951908
0.022028547885019
0.021805347608974
0.021557659500996
0.021285668721286
0.020989593102393
0.020669694127946
0.020326254972161
0.019959603286749
0.0195700739739
0.019158068271634
0.018723970527233
0.018268277648953
0.017791409495068
0.017293996826259
0.01677645325329
0.016239617343917
0.015683796005812
0.015110183786784
0.014518740199003
0.013911298017887
0.013286833881945
0.012648034338041
0.023941898412228
0.023917375936414
0.023867852901636
0.023792378264439
0.023690434274162
0.023561984367224
0.023407224539667
0.023226382372753
0.023019636636284
0.022787124552337
0.022528970330471
0.022245323928666
0.021936363517852
0.021602313385105
0.021243412681957
0.020859953833307
0.02045222355463
0.020020596313169
0.019565401478268
0.019087129155036
0.018586128200674
0.018063064751681
0.017518240714397
0.016952616238418
0.016366286678537
0.015760739042238
0.015135475507105
0.014492937359495
0.013830987047711
0.013153214323469
0.025218333550505
0.025192717587928
0.025140981713474
0.025062139053888
0.024955653956768
0.024821475639958
0.024659778423103
0.024470758167719
0.024254552556579
0.024011252762025
0.023740931254067
0.023443685332364
0.023119634300036
0.022768946376861
0.022391794989594
0.021988417561971
0.021559027998897
0.021103955219389
0.020623445333932
0.020117967394405
0.019587764481806
0.019033534970894
0.018455419899171
0.017854522013108
0.017230644570015
0.016585637144559
0.015918391642884
0.015232127322436
0.014523264967484
0.013796586485295
0.026708294409121
0.026681540809944
0.026627500548628
0.026545148889818
0.026433927037103
0.026293759838069
0.026124786720803
0.025927157302618
0.025700952292621
0.025446199553337
0.025162900271806
0.024851078205268
0.024510770327439
0.024142064997456
0.023745042819441
0.023319860655359
0.022866628739389
0.022385604937372
0.021876916624843
0.021340989893395
0.020777919327606
0.020188424192213
0.019572428335117
0.018931189600442
0.018264132918603
0.017573533752307
0.01685752122422
0.016120251589424
0.015356377762515
0.014572122273817
0.028379685927858
0.028351839282943
0.028295580879106
0.028209847575462
0.028094053127658
0.027948087778769
0.027772041597138
0.027566001291201
0.027329972244353
0.027063899254769
0.026767690035885
0.026441270858703
0.026084569263729
0.025697565691376
0.025280215940117
0.024832565254366
0.024354583252698
0.02384642452152
0.023308054982214
0.022739827823761
0.02214163826897
0.021514205686078
0.020857171018233
0.020171949230888
0.019457492364396
0.018716549731655
0.017946325874994
0.017152048935976
0.016326269177974
0.015476847802236
0.030202798615922
0.030173989222726
0.030115771882379
0.030027045908234
0.029907193399641
0.029756059305353
0.02957366918409
0.029360029300371
0.029115050172984
0.028838572197908
0.028530385436852
0.028190292290722
0.027818080813908
0.027413591895684
0.026976620348423
0.02650706377887
0.02600470862845
0.025469567407882
0.02490139469689
0.024300432468287
0.023666316912376
0.022999736316267
0.022299973760939
0.021568589447892
0.020803957369883
0.020009331780141
0.019180823892207
0.018324841996991
0.017431498365308
0.016510436224745
0.032149664956178
0.032120104010493
0.032060350026285
0.031969267164638
0.03184620220102
0.031690944036304
0.031503438403977
0.031283593359388
0.031031204654866
0.030745986342582
0.030427585769509
0.030075653772633
0.029689807111884
0.029269713078729
0.028814966351218
0.028325276997687
0.027800201280267
0.027239565112458
0.026642855694625
0.026010157341591
0.025340779626598
0.024635337208769
0.02389267010847
0.02311445735398
0.0222983813131
0.021448211227449
0.020558791770488
0.01963779014232
0.018672549292435
0.017674567912322
0.034193733692499
0.03416370633662
0.034102988612618
0.034010410460606
0.033885279204544
0.033727318131354
0.033536379421828
0.03331225639065
0.033054610973076
0.032763009476882
0.032436931863666
0.032075849753525
0.031679176605075
0.031246371172879
0.030776787651052
0.030269906263293
0.029725003484382
0.029141669584234
0.028519064108542
0.027857060094435
0.027154566892511
0.02641207219873
0.025627880967608
0.024803746982261
0.023936538293204
0.023030524422701
0.022079105592628
0.021091248237443
0.020051202958991
0.018972313336169
0.036309775424642
0.036279626922344
0.03621864808901
0.036125632288949
0.035999841294229
0.035840923909421
0.035648627546571
0.035422617050778
0.035162404101629
0.034867388085294
0.034536859035333
0.034170083335856
0.033766240745379
0.033324547231828
0.032844077105989
0.032324037609607
0.031763375839132
0.031161394000168
0.030516862666637
0.029829382851935
0.029097388571441
0.028321174899657
0.027498417968685
0.026630883340337
0.025714501908252
0.024753995154989
0.023741137678457
0.022686184188037
0.021569982211818
0.020407616045903
0.038473966273675
0.038444089277105
0.03838364315883
0.038291391080889
0.03816654771847
0.03800867975344
0.037817419593688
0.037592291787477
0.037332643922675
0.037037692242284
0.03670651822579
0.036338160671687
0.035931539343097
0.035485595739628
0.034999088543357
0.034470909335954
0.033899629877942
0.033284208735601
0.032622970522889
0.031915174036346
0.031158709543575
0.030353594390772
0.029496796875542
0.028589997071311
0.027628093206525
0.026616163797079
0.025544193791847
0.024423653647456
0.023231592457373
0.021984723145008
0.040663996564344
0.040634815945811
0.040575759546429
0.040485572367676
0.040363424722115
0.040208795979108
0.040021195677845
0.039799999757789
0.039544382942242
0.039253366819848
0.038925809705888
0.038560504182228
0.038156089476182
0.037711205945898
0.037224267410266
0.036693810146649
0.036117991011455
0.035495368592964
0.034823772271779
0.034102039986117
0.033327462537544
0.032499668869367
0.03161486596854
0.030674495884511
0.02967238721061
0.028613793659325
0.027486906200911
0.026304149029135
0.025038780771011
0.023707919607248
0.042859237733722
0.042831195041814
0.042774419787731
0.042687654002237
0.042570030042007
0.042420938175343
0.042239760396802
0.042025719361605
0.041777812538905
0.04149486146238
0.041175494208229
0.040818245993064
0.040421460254022
0.03998345609958
0.039502279518274
0.038976080866522
0.038402567235742
0.037779850022238
0.037105215312925
0.036377009993942
0.035591867420172
0.034748921540902
0.033843563946109
0.032876817513293
0.031841447545974
0.030742500411968
0.029566646480221
0.028326477262878
0.026992273019224
0.025581142333262
0.04504092088503
0.045014459515754
0.044960862149198
0.04487888520738
0.044767631722319
0.044626404379873
0.04445445711503
0.044250859538175
0.044014432946885
0.043743799699847
0.04343735687965
0.043093379495911
0.042709909124073
0.04228493345819
0.041816114123222
0.041301195560782
0.040737406532371
0.04012237844558
0.039452806015331
0.038726496421292
0.037939349811138
0.037089942724955
0.036172732868945
0.035188260426817
0.034128034064116
0.032996874337103
0.031779579370006
0.030489047458232
0.02909209007359
0.0276054327373
0.047192287852544
0.047167839112095
0.047118293296935
0.047042440157585
0.046939364219263
0.046808285041615
0.046648332040834
0.046458427227187
0.04623722276481
0.045983149360804
0.045694379797266
0.045368934165182
0.045004554821546
0.044598898353045
0.044149237408783
0.0436529008997
0.043106621420332
0.04250752864682
0.041851690704294
0.041136335890553
0.040356568791505
0.039510348869883
0.038591100022024
0.037598803920052
0.036523560853222
0.035369886995732
0.034120459169519
0.03278838957298
0.031336471170862
0.029780775417817
0.04929869494335
0.049276664940811
0.049231995350363
0.04916352957752
0.049070345779243
0.048951587512482
0.048806267162569
0.048633169387313
0.048430790015531
0.048197382252429
0.047930908833206
0.047629148630788
0.047289556920665
0.046909469624788
0.046485777137662
0.046015396612946
0.045494560058227
0.044919886380271
0.044286795770418
0.043591913601382
0.042829501028522
0.041996854389788
0.041086272425134
0.040097108248406
0.03901790056859
0.037852785470042
0.036582076027888
0.035219022440047
0.03372185665029
0.032105499513712
0.051347661157213
0.051328420307925
0.051289380659481
0.051229460544572
0.051147745379558
0.051043312132907
0.05091506737148
0.050761673249609
0.050581487192067
0.050372604642514
0.050132799432986
0.049859630690794
0.049550288248595
0.049201808018514
0.048810716953875
0.048373536376093
0.047886008493449
0.047344247801011
0.046743020801842
0.046078341628739
0.045343598312621
0.04453539795128
0.043644840497867
0.042670597291802
0.041599482778245
0.040435175932304
0.039155342688416
0.037773340823636
0.036242334321556
0.034575675598867
0.053328858135451
0.053312733423002
0.053279990562748
0.053229643954428
0.053160799839185
0.053072480035193
0.052963500460272
0.052832419747727
0.052677479654993
0.052496642593124
0.052287521179244
0.052047482746121
0.051773482178679
0.051462284188448
0.051110083184516
0.050713031071838
0.050266407462498
0.049765841945685
0.049205463713102
0.048580680812336
0.047884001218934
0.047111332151455
0.046252533111379
0.045305572455977
0.044255415872378
0.04310522022997
0.041829628074484
0.040442000103481
0.038889718227623
0.037184684566101
0.05523404303087
0.055221315927961
0.055195442567352
0.055155551553499
0.055100782784105
0.055030116262996
0.054942296050046
0.054835799851387
0.054708780735168
0.054559096022272
0.054384230206865
0.054181391940437
0.053947341987644
0.05367860959855
0.053371101497338
0.053020632213447
0.052622065484862
0.052170569486413
0.05165968252279
0.051084213393424
0.050435827707091
0.049709707033357
0.048894490556497
0.047987396638248
0.046971559273638
0.045849594235345
0.04459298404892
0.043214682242459
0.041655358869722
0.039924446515816
0.057056932722323
0.057047844442385
0.05702932408405
0.057000625247773
0.056960933122121
0.056909200833392
0.056844118389555
0.056764106169538
0.056667263668363
0.056551377916782
0.056413842852307
0.056251740290159
0.056061683527671
0.055840003740059
0.055582383000939
0.055284333705635
0.05494038255
0.05454525326824
0.054091989051121
0.053574778681151
0.052984564131212
0.052315718705599
0.051555789689702
0.050701065836123
0.049732998143783
0.048653514862834
0.047431478175452
0.046079165250229
0.044531074120878
0.042787821785531
0.058793044535432
0.058787785085046
0.058777004754225
0.05876008508179
0.05873627642415
0.058704523495306
0.058663469624528
0.058611486200859
0.058546650423154
0.058466722356538
0.058369060732811
0.058250663005125
0.058108048853198
0.057937379785193
0.057734182122933
0.057493685678785
0.057210191858243
0.056877975464527
0.056489765277855
0.056039046689233
0.055516321289122
0.054914912512872
0.054221715956742
0.053431569243588
0.052524721123386
0.051501534213182
0.050328662772512
0.049018145689299
0.04749960597014
0.045767513827529
0.06043956607498
0.060438203787018
0.060435376529845
0.060430611643067
0.060423249132394
0.060412238214458
0.060396192279969
0.060373452792135
0.060342084017534
0.060299822944373
0.060244029518245
0.060171668850529
0.060079244375376
0.059962798903602
0.059817792131099
0.059639179345165
0.059421151598154
0.059157466407031
0.05884076790749
0.058463623184288
0.058016602578103
0.0574914051864
0.056875357766215
0.05616053581844
0.055328045502167
0.054373769637517
0.053263812297717
0.05200616905174
0.050525383403169
0.048828109023282
0.06199541052929
0.061997800819592
0.062002725494534
0.062010074428072
0.062019327673329
0.062029331657036
0.062038658564395
0.062045721824731
0.062048644429074
0.062045150000224
0.062032589185641
0.062007877995573
0.061967506716373
0.061907422006256
0.061823102478365
0.061709297820026
0.061560245964612
0.061369171074929
0.061128841698318
0.060830603849008
0.060465600091566
0.060022966573462
0.059492029957359
0.058859427050889
0.058112048581497
0.057234128427011
0.056203108993763
0.055000554809429
0.053562174590464
0.051865340287738
0.063461581289583
0.063467731888168
0.063479753549362
0.063498593900393
0.063524051994586
0.063554659557391
0.063588838025985
0.063625174695155
0.063661909609682
0.063696880086893
0.06372757425297
0.063750954709184
0.06376351890105
0.063761077815205
0.063739025265521
0.063691899496967
0.063614048917015
0.06349841360675
0.063338136856661
0.063123616072047
0.06284680264163
0.062494058242385
0.062057245723837
0.061516036350534
0.060865569906362
0.060072607250893
0.059143329359564
0.058013525944403
0.056677142856594
0.054898442531093
0.011532366810209
0.010987856755106
0.010433926444786
0.0098717176904745
0.0093022777254521
0.0087264358495847
0.0081448792412075
0.0075582620870081
0.0069672751692683
0.0063726605566745
0.0057751931315658
0.0051756593483554
0.0045748463094051
0.0039735388507632
0.0033725192301095
0.0027725669412738
0.0021744580733695
0.0015789629626025
0.000986842809295
0.00039884742044635
-0.00018428613673551
-0.00076183278562108
-0.0013330757987386
-0.001897297635896
-0.0024537750162058
-0.0030018903828688
-0.0035412777356277
-0.0040713968490357
-0.0045916478006265
-0.0051014658674346
-0.0056003546913847
-0.0060878808729964
-0.0065636607158729
-0.0070273488608553
-0.007478638606741
-0.0079172593790309
-0.0083429847319178
-0.0087556239190609
-0.0091550357627347
-0.0095411076773081
-0.0099137862390098
-0.010273029490077
-0.010618875995667
-0.010951339622351
-0.01127056567414
-0.01157659728273
-0.011869729577787
-0.012149985533405
-0.012417955693138
-0.01267362106271
0.011708690310552
0.01115569414475
0.010591910342496
0.010019627249792
0.0094403824154011
0.0088549254088716
0.0082636644373497
0.0076670239265138
0.0070655934855474
0.0064601061118922
0.0058513553096307
0.0052401413082646
0.0046272581374517
0.0040134977319151
0.0033996567916482
0.0027865410951573
0.0021749642149094
0.0015657422692792
0.00095968876904575
0.00035761101534476
-0.00023969381906106
-0.00083144575871456
-0.001416894374529
-0.001995339600278
-0.0025661515673081
-0.0031286511358089
-0.003681927176748
-0.0042253171536246
-0.0047582764057394
-0.0052802893561151
-0.0057908517053586
-0.0062894804391012
-0.006775730573565
-0.0072491987386585
-0.0077095311451795
-0.0081564153546357
-0.0085895926742338
-0.0090088394294525
-0.0094139953943569
-0.0098049202706917
-0.010181557758549
-0.010543836788804
-0.010891817844182
-0.011225467925553
-0.011544994872569
-0.011850333643692
-0.012141904526782
-0.012419420859218
-0.012683603037603
-0.012933287955195
0.01204058405099
0.011465149525304
0.010875783411355
0.010277391218044
0.0096727648811569
0.0090626605346183
0.0084470372649939
0.007825952290931
0.0071998779089544
0.0065696027508834
0.0059360163936029
0.0052999882971574
0.0046623516337794
0.0040239242660457
0.0033855298407871
0.0027480092976869
0.0021122191221897
0.0014790214214185
0.00084927503794891
0.00022383135195941
-0.00039646899075468
-0.0010107994315806
-0.0016183487727528
-0.0022183156847695
-0.0028098970283085
-0.0033923075153381
-0.0039648665786733
-0.0045269006248946
-0.0050777728968228
-0.0056168864152317
-0.006143682573392
-0.0066576396780318
-0.0071582820666038
-0.0076451775841732
-0.0081179496396328
-0.0085762627118235
-0.0090198453899156
-0.0094484554305266
-0.0098619324555059
-0.010260116424909
-0.010642969526158
-0.011010388602617
-0.011362487517609
-0.011699161932895
-0.012020743340623
-0.012326984368991
-0.012618560658544
-0.012894655831181
-0.01315632304683
-0.013400365850527
0.012510047479417
0.011899198811177
0.011270041741747
0.010631658958277
0.0099887119351933
0.009341869590035
0.008690349054511
0.0080336342437788
0.0073720192103712
0.0067063712565257
0.0060377073364326
0.0053669738998635
0.0046950313195668
0.0040227033555218
0.0033508204907332
0.0026802423083257
0.0020118551428755
0.0013465562469819
0.00068524141291477
2.8801518768289e-05
-0.00062187888680753
-0.0012659250040862
-0.001902476485108
-0.002530693094238
-0.0031497640362943
-0.003758912369812
-0.0043573717342495
-0.0049444191979521
-0.0055193716303444
-0.0060815843238679
-0.0066304565811972
-0.0071654295805486
-0.0076859954153078
-0.0081916888136863
-0.0086821046969279
-0.0091568749298833
-0.0096157056900222
-0.010058321340064
-0.01048454982688
-0.010894191160233
-0.011287216923203
-0.011663462493069
-0.012023094877525
-0.012365888959584
-0.012692322420275
-0.013001863326922
-0.013295501552507
-0.013571598236478
-0.013831538510535
-0.014068890424692
0.013107843934369
0.012450272294933
0.011768643867551
0.011077836067549
0.010384982854535
0.0096905261549485
0.0089926178061955
0.0082899601433088
0.0075826208295137
0.0068715833598652
0.0061580346880121
0.0054430139170522
0.0047274040309278
0.0040120245914625
0.0032977050686857
0.0025853198678891
0.0018757845870841
0.0011700318530636
0.00046899347391633
-0.000226402962892
-0.00091523481581677
-0.0015965886710356
-0.0022695661115221
-0.0029332873433333
-0.003586894301101
-0.0042295545722425
-0.0048604645009097
-0.0054788536722677
-0.0060839908865369
-0.0066751845522048
-0.0072517894237903
-0.0078132026316133
-0.0083588755118648
-0.008888300550809
-0.0094010357057315
-0.0098966708718496
-0.010374881479902
-0.010835347985258
-0.011277879465114
-0.011702223473178
-0.012108356544375
-0.012496032873226
-0.012865475468109
-0.013216298478028
-0.013549145821941
-0.013863111795595
-0.014159556244732
-0.014435782047634
-0.014693580595284
-0.014922305117813
0.013829160999744
0.013114401606876
0.012368215779366
0.011613084214262
0.010859267073883
0.010106814264355
0.0093524633797823
0.0085939256368647
0.0078310086739694
0.0070648661260977
0.0062969080499092
0.0055282870292047
0.0047599073995425
0.0039925772979399
0.0032271204027643
0.0024644255220589
0.0017054395051121
0.00095113242432956
0.00020247315347818
-0.00053957376209865
-0.0012740468026551
-0.0019999913105331
-0.0027164653202941
-0.0034225425910287
-0.0041173160085657
-0.0047999055556806
-0.0054694621166324
-0.0061251681789799
-0.0067662441979322
-0.007391949268653
-0.0080015899732804
-0.008594514736561
-0.0091701286256644
-0.0097278757364927
-0.010267270819292
-0.010787854561411
-0.011289264790555
-0.011771129819076
-0.01223323235391
-0.012675257418236
-0.013097180181827
-0.013498660221446
-0.013879979701412
-0.014240566718316
-0.014581259742633
-0.014900715573605
-0.015200722542422
-0.015477321943337
-0.015732706438903
-0.015951033182713
0.014671993236947
0.01389007589463
0.013067514082398
0.012236452834819
0.011410980932684
0.010590536239394
0.0097700406813958
0.0089459910733695
0.0081179119337434
0.0072871943263485
0.0064555314313264
0.0056242101495844
0.004794152068373
0.0039661455780473
0.0031410045508855
0.0023196326600086
0.0015030111812009
0.00069215099566747
-0.00011193962726987
-0.00090825719262596
-0.0016957989610159
-0.0024735663879642
-0.0032405716740893
-0.0039958411260536
-0.0047384190803105
-0.0054673763218698
-0.0061818111200155
-0.0068808535081714
-0.007563671471607
-0.0082294706069011
-0.008877503852229
-0.0095070645429091
-0.010117504222099
-0.010708210621733
-0.011278646633383
-0.011828294695577
-0.01235674510517
-0.012863563231434
-0.01334849306812
-0.013811145145135
-0.01425147690258
-0.014669039630384
-0.015064155770969
-0.015436042016103
-0.015785735072967
-0.016111371679871
-0.016415263851126
-0.016691906885737
-0.016943997336698
-0.017149376393421
0.015636979499756
0.01477827965044
0.013867595247739
0.01294911194077
0.012041508820877
0.011143321218013
0.010247187050558
0.0093481456416958
0.0084454269115949
0.0075407439536728
0.0066361417354904
0.0057330629000976
0.0048324406345788
0.0039350342830133
0.0030416448159992
0.0021531937829807
0.001270702188953
0.00039522681800482
-0.00047218047726432
-0.0013304738809084
-0.0021786061665429
-0.0030155314402354
-0.003840212412042
-0.0046516238681197
-0.0054487564612728
-0.0062306257749239
-0.0069962721636914
-0.007744767148104
-0.0084752194714246
-0.0091867741898736
-0.009878623027539
-0.010549996504125
-0.011200183451651
-0.011828506461278
-0.012434365986444
-0.013017175787992
-0.013576466202665
-0.014111727601173
-0.014622651580406
-0.015108760234985
-0.015569976598821
-0.016005732113779
-0.01641636029626
-0.016800866018595
-0.017160423506586
-0.017492643684811
-0.017800266806333
-0.018076087008584
-0.018323175279033
-0.018511952447223
0.016726801823119
0.01578192770518
0.014771290265291
0.013753860827988
0.012753735707998
0.01176817369149
0.010786986629917
0.0098034977731995
0.0088166474086181
0.0078285719094484
0.0068417442203573
0.0058577844452624
0.0048776291200363
0.0039019988915192
0.0029316809109093
0.0019676202253157
0.0010108856740071
6.2587153500263e-05
-0.00087617456234053
-0.0018043066817903
-0.00272071263694
-0.003624293965594
-0.0045139581797669
-0.0053886223822519
-0.0062472168759186
-0.0070886954591388
-0.0079120338501301
-0.0087162376337784
-0.0095003483539602
-0.010263442609363
-0.01100464189188
-0.011723105010806
-0.012418047841653
-0.013088718024386
-0.013734441012918
-0.014354551460555
-0.014948505577049
-0.015515706094735
-0.01605577803494
-0.016568135839329
-0.017052660661647
-0.017508626797318
-0.017936388738696
-0.018334674182472
-0.018704819019421
-0.019043832723289
-0.019354864986981
-0.019628908425223
-0.019869174540952
-0.020037779043878
0.017945585383689
0.016905301137288
0.015782705247019
0.014654710963583
0.013551712028448
0.012469207895511
0.011393557231403
0.010316099945135
0.0092355233588735
0.0081545151710878
0.0070760576684605
0.0060019640089835
0.004933161803732
0.0038703232113747
0.0028142227249753
0.0017658374193558
0.00072629384837301
-0.00030323632380472
-0.0013215960793224
-0.0023276393341574
-0.0033202138680561
-0.0042981617602041
-0.0052603279228624
-0.0062055641731418
-0.0071327326802689
-0.0080407175319151
-0.0089284214099216
-0.0097947754500916
-0.010638744708318
-0.011459327536749
-0.012255564944161
-0.013026533598759
-0.013771364550649
-0.014489219005644
-0.01517933430165
-0.015840953543494
-0.016473442682184
-0.017076105666053
-0.017648479053635
-0.018189863770315
-0.01870006675664
-0.019178207283785
-0.019624626311705
-0.020037763189698
-0.020419124775658
-0.020765030579308
-0.021079150300564
-0.021350386115477
-0.021582180782758
-0.021727010344183
0.019298384465328
0.018153531072992
0.01690673481979
0.015656457853262
0.01444029000641
0.013251345164056
0.012071809110177
0.010890769017775
0.0097067331329704
0.00852309858367
0.0073434484205918
0.0061697995333429
0.0050030498593131
0.0038438124573371
0.002692855962577
0.0015512029312287
0.00042005025246639
-0.00069935873001146
-0.001805802775312
-0.0028980749089066
-0.0039749593679297
-0.0050352304625612
-0.0060776615591943
-0.0071010299372564
-0.008104120093031
-0.0090857368791312
-0.010044699897734
-0.010979855361634
-0.01189008079971
-0.012774285511209
-0.013631417759817
-0.01446046003479
-0.015260445292192
-0.016030435544152
-0.016769564757667
-0.017476970979756
-0.018151914467894
-0.018793583880969
-0.019401413790314
-0.019974569959967
-0.020512774689987
-0.021014968663388
-0.021481461401114
-0.021910394226077
-0.022303404676957
-0.02265612038574
-0.022972689293856
-0.023239785255029
-0.023460962762233
-0.023577814535972
0.020790723001343
0.019532224381888
0.018148712575235
0.016764353656785
0.015424834898914
0.014120047098011
0.012827175471836
0.011532817376854
0.01023543792954
0.0089393284463493
0.0076487611537051
0.0063659583323833
0.0050917635302203
0.0038267197832875
0.002571599682525
0.0013274901907133
9.567464023264e-05
-0.0011225204786639
-0.0023257997097229
-0.0035128855084228
-0.0046824886668996
-0.0058333052759297
-0.0069640262356576
-0.0080733432348647
-0.0091599518313497
-0.010222566406835
-0.011259911720296
-0.012270737167666
-0.013253819954229
-0.01420796719723
-0.015132020704783
-0.016024855309413
-0.016885390519957
-0.017712574662027
-0.018505422500859
-0.019262951437432
-0.019984298872095
-0.020668521827314
-0.02131493698179
-0.021922554044033
-0.022491001057085
-0.023019009258921
-0.02350685495639
-0.023952343576377
-0.024357227080147
-0.024716395185237
-0.025034415001002
-0.025295511473668
-0.02550316783535
-0.025586742212794
0.022427968312783
0.021046780033196
0.019513917213061
0.017983754861977
0.016510908765932
0.015081024404661
0.013665368546245
0.012247851799232
0.010827107490362
0.0094085375793274
0.0079971827410032
0.0065954570075829
0.005204120080198
0.0038236399482666
0.0024548112357297
0.0010988089500775
-0.0002429780249509
-0.0015691266811709
-0.0028782567632434
-0.0041690090770454
-0.0054400087157704
-0.0066898607060062
-0.0079171602494789
-0.009120500089782
-0.010298473481558
-0.011449691038039
-0.012572769055931
-0.013666345737228
-0.014729083360052
-0.015759672063932
-0.016756831640854
-0.01771931287
-0.018645906065609
-0.019535428453942
-0.02038675876202
-0.021198775307854
-0.021970476474622
-0.022700767703261
-0.023388832035887
-0.024033501328972
-0.02463429912941
-0.025189713291335
-0.025699996347612
-0.026162559325481
-0.026579302441374
-0.026944320093522
-0.027262631383722
-0.027515923292895
-0.027707610911404
-0.027753524095046
0.024215442711835
0.022702201072829
0.021007165405921
0.019319768640756
0.017703980596388
0.016139923625614
0.014592044546529
0.013041461451811
0.011487248219546
0.0099361498904071
0.008394039130721
0.0068634894385128
0.0053451454678256
0.0038394033881059
0.0023471058417534
0.00086954541199081
-0.00059176161502406
-0.0020352807511281
-0.0034595334963549
-0.0048630650295991
-0.0062443998574159
-0.0076020361967985
-0.0089344577188225
-0.010240142336048
-0.011517565160704
-0.012765217281671
-0.013981590817199
-0.015165196141676
-0.016314564196881
-0.01742824992434
-0.018504834398907
-0.019542925515283
-0.020541166662788
-0.021498223662587
-0.022412822381023
-0.023283680469078
-0.024109639778254
-0.024889433044561
-0.025622093636602
-0.026306252997211
-0.026941322512947
-0.027525509555071
-0.028059070465485
-0.028538937048685
-0.028967256286165
-0.029337196798054
-0.02965433582862
-0.029897685704387
-0.030070463048359
-0.030073649594971
0.026156151946404
0.024502517160383
0.022632946559185
0.020777268201603
0.019009289212336
0.017302199403078
0.015612703035114
0.013919111286377
0.012221289531066
0.010527567151999
0.0088446840620074
0.0071753192045783
0.0055199684100415
0.0038789713227742
0.0022532583152306
0.00064427453619674
-0.00094631327641558
-0.0025168429101392
-0.0040657226105048
-0.005591384539706
-0.0070922335005433
-0.0085666416769689
-0.010012962601468
-0.011429540820089
-0.012814714927606
-0.014166837726974
-0.015484258775428
-0.016765340633186
-0.018008464473518
-0.019212029039021
-0.020374458237815
-0.021494193025621
-0.022569713399679
-0.023599507755386
-0.024582133658856
-0.025516119569781
-0.026400138821404
-0.027232721053291
-0.028012740992801
-0.028738602070745
-0.029409599374369
-0.030023632007684
-0.030580981958411
-0.031078024556059
-0.031517286761293
-0.031890764465357
-0.032204899742954
-0.032435635222729
-0.03258603969117
-0.032541125455167
0.028252049712724
0.026450332987204
0.024394431305679
0.022360143249332
0.020431349153121
0.018572706729253
0.016732310674195
0.014885811623743
0.01303430511824
0.01118793458598
0.0093542992132414
0.0075361058482107
0.0057336725158822
0.0039473129318194
0.0021780969008983
0.0004276648204112
-0.0013021404761829
-0.0030095115755824
-0.0046927242669941
-0.0063500757372665
-0.007979828118335
-0.0095802042878862
-0.011149405474219
-0.012685621785628
-0.014187033860224
-0.015651835843834
-0.017078213233998
-0.01846435626629
-0.019808474961752
-0.02110878632276
-0.02236353788994
-0.023570974591379
-0.024729396420466
-0.025837079883062
-0.026892405564788
-0.027893669505931
-0.028839376690545
-0.029727802866301
-0.030557676476456
-0.031327120465018
-0.032035332516277
-0.032679869531192
-0.033261055979594
-0.033774693714022
-0.034223763832585
-0.034598909746596
-0.034907863842751
-0.035122740029131
-0.035247224327352
-0.035148773330896
0.030503288139534
0.028546437017485
0.026293166843848
0.024070968913741
0.021973641340493
0.019955451708205
0.017955091727079
0.015945917920661
0.013930814976189
0.011921948744357
0.0099277091432768
0.0079507292424101
0.0059911331175068
0.0040492629806053
0.0021263939629934
0.00022440347402449
-0.0016546666924479
-0.0035088437258491
-0.0053362472386433
-0.007135011812306
-0.0089032286219554
-0.010638943439627
-0.01234017688252