/*--------------------------------*- C++ -*----------------------------------*\
| =========                 |                                                 |
| \\      /  F ield         | OpenFOAM: The Open Source CFD Toolbox           |
|  \\    /   O peration     | Version:  2112                                  |
|   \\  /    A nd           | Website:  www.openfoam.com                      |
|    \\/     M anipulation  |                                                 |
\*---------------------------------------------------------------------------*/
FoamFile
{
    version     2.0;
    format      ascii;
    arch        "LSB;label=32;scalar=64";
    class       surfaceScalarField;
    location    "13";
    object      phi;
}
// * * * * * * * * * * * * * * * * * * * * * * * * * * * * * * * * * * * * * //

dimensions      [0 3 -1 0 0 0 0];

oriented        oriented;

internalField   nonuniform List<scalar> 
43645
(
0.39512371848086
-4.8453913011867e-06
0.39513828692439
-1.4568413080831e-05
0.39516253973686
-2.4252779555808e-05
0.39519645398886
-3.3914218004834e-05
0.39524001894872
-4.356492572457e-05
0.39529320490607
-5.3185923569222e-05
0.39535594784364
-6.2742904438542e-05
0.39542815576471
-7.2207888684636e-05
0.39550971759083
-8.1561794582023e-05
0.39560051400349
-9.0796381932086e-05
0.39570041831198
-9.9904278647854e-05
0.39580930516477
-0.00010888682377478
0.39592704052376
-0.00011773533083194
0.39605349257191
-0.0001264520207725
0.39618850547427
-0.0001350128758018
0.39633192972963
-0.00014342422949567
0.39648357242638
-0.00015164267161031
0.3966432758829
-0.00015970343198054
0.39681080539894
-0.00016752949210637
0.39698602501358
-0.00017521959115388
0.39716863174003
-0.00018260670344488
0.39735855406496
-0.00018992230223636
0.39755533992597
-0.00019678583864664
0.39775907722957
-0.00020373728139975
0.39796899235373
-0.00020991510215571
0.39818557314369
-0.00021658076800281
0.39840734909554
-0.00022177592996927
0.39863577512616
-0.0002284260089646
0.39886782444247
-0.00023204929508031
-0.00023935233390248
0.39910717679798
0.37294707734707
-9.3679513073098e-06
0.37296075589358
-2.8246909943401e-05
0.37298370010306
-4.719693851099e-05
0.37301589328511
-6.6107349597089e-05
0.37305732705086
-8.4998641682968e-05
0.37310797848633
-0.00010383731015175
0.37316779595741
-0.00012256032769831
0.37323670345887
-0.00014111534339633
0.37331460701007
-0.0001594653001946
0.37340140371988
-0.00017759304725868
0.37349698201124
-0.00019548252670414
0.37360123075151
-0.00021313552183085
0.37371403036965
-0.00023053490792121
0.37383526488791
-0.00024768649899778
0.37396479624715
-0.0002645441960866
0.37410249415581
-0.00028112210010966
0.37424818532346
-0.00029733380215345
0.37440173053918
-0.00031324861133853
0.37456291194877
-0.00032871086611486
0.37473160804812
-0.00034391565547152
0.37490752981567
-0.00035852843655234
0.37509061827145
-0.00037301072394126
0.37528043711488
-0.00038660464841318
0.37547708769325
-0.00040038782628315
0.37567981857536
-0.0004126459510217
0.37588913022317
-0.00042589238258173
0.37610358730412
-0.00043623297780291
0.37632465092024
-0.00044948959231412
0.37654936316068
-0.00045676150385487
-0.00047140899075627
0.37678141985013
0.35201534683137
-1.3817208683695e-05
0.35202872152018
-4.1621546994406e-05
0.35205104277404
-6.9518140482401e-05
0.35208231095037
-9.7375474625262e-05
0.35212252905586
-0.00012521669693989
0.35217168330316
-0.0001529915083756
0.35222973516468
-0.00018061214145453
0.35229662725281
-0.00020800738501882
0.35237228719842
-0.00023512520065489
0.35245663385678
-0.00026193966174764
0.35254957532413
-0.00028842395155379
0.35265101901614
-0.00031457917256701
0.35276086368371
-0.00034037953555218
0.35287901497869
-0.00036583775517138
0.35300535847571
-0.00039088765550354
0.35313979205377
-0.00041555564152449
0.35328216773804
-0.00043970945081929
0.35343237394784
-0.00046345478627086
0.35359020923626
-0.00048654612048094
0.35375557490232
-0.0005092812879842
0.35392818539214
-0.00053113889339673
0.35410800862695
-0.00055283392603188
0.35429459871489
-0.0005731947039791
0.35448810459957
-0.00059389367862902
0.35468773842128
-0.00061227974053141
0.3548940899239
-0.00063224385283373
0.35510561632533
-0.00064775934683053
0.3553239517149
-0.00066782494962114
0.35554586348788
-0.00067867324559666
-0.00070092800281364
0.35577538253243
0.33225840841587
-1.8181621007214e-05
0.33227149427543
-5.4707360423986e-05
0.33229330909301
-9.1332911739861e-05
0.33232385744371
-0.00012792377946319
0.33236314761891
-0.00016450682719438
0.33241117549596
-0.00020101934146413
0.33246791926869
-0.00023735587137285
0.33253334476267
-0.00027343283727655
0.33260740585962
-0.00030918625711161
0.3326900476588
-0.00034458142155136
0.33278120194824
-0.00037957820286199
0.33288079873376
-0.00041417592105082
0.33298875914171
-0.00044833990767079
0.33310501582827
-0.0004820944069109
0.333229483799
-0.00051535559250236
0.333362096776
-0.00054816858564501
0.33350273832938
-0.0005803509722561
0.33365133239305
-0.00061204881865231
0.33380769694498
-0.00064291064184494
0.33397176300952
-0.00067334732240591
0.33414324622916
-0.0007026220834339
0.33432215067401
-0.00073173834148827
0.33450801191876
-0.00075905591966652
0.3347010451998
-0.00078692693061944
0.33490040473666
-0.0008116392484867
0.33510681054593
-0.00083864963303831
0.33531856460935
-0.00085951338119261
0.33553756957577
-0.00088682988712782
0.33576022069493
-0.00090132433682886
-0.00093184415256526
0.33599113687384
0.31361034743673
-2.2471638638045e-05
0.31362317312605
-6.7533008467818e-05
0.31364453693448
-0.0001126966788784
0.31367445418663
-0.00015784099088522
0.31371294030993
-0.00020299291069954
0.31376000212716
-0.00024808111990189
0.3138156374842
-0.00029299119078778
0.31387984003061
-0.00033763534714107
0.313952595214
-0.00038194140519157
0.31403387971476
-0.00042586588810436
0.31412365390316
-0.00046935235828232
0.31422187526966
-0.00051239725564625
0.31432849229301
-0.00055495690027669
0.31444347071304
-0.00059707279715928
0.31456676138868
-0.00063864623939444
0.31469834177852
-0.0006797489475243
0.31483813380353
-0.00072014297014871
0.31498610521687
-0.00076002020543377
0.31514209815655
-0.00079890355561074
0.31530608161621
-0.00083733075646406
0.31547777369839
-0.00087431414043595
0.31565722547745
-0.00091119009545051
0.31584395051922
-0.0009457809365358
0.31603824917135
-0.00098122555772453
0.31623920414594
-0.0010125941980507
0.31644770119192
-0.0010471466536876
0.31666184824806
-0.0010736604118524
0.31688388420217
-0.0011088658157228
0.31710973125514
-0.0011271713650236
-0.0011668396134847
0.31734472674225
0.29600891600297
-2.6685745557556e-05
0.29602147377788
-8.0090745395696e-05
0.29604237243215
-0.00013359529519802
0.29607164149643
-0.00018711001773366
0.29610930636742
-0.00024065774510891
0.29615538747835
-0.00029416219512301
0.29620990566373
-0.00034750934148429
0.29627288671978
-0.00040061636946578
0.29634435259944
-0.00045340725222417
0.29642431673562
-0.00050582999262169
0.29651277308936
-0.0005578086814882
0.296609711777
-0.00060933591368445
0.29671511392247
-0.00066035901722905
0.29682898461816
-0.00071094346518371
0.29695131724968
-0.00076097884420925
0.29708214104432
-0.00081057271616914
0.29722142365234
-0.00085942555298316
0.29736918544183
-0.00090778197025725
0.29752529886644
-0.00095501695616996
0.29768977998766
-0.0010018118539404
0.29786235304573
-0.0010468871751947
0.29804312733939
-0.0010919643659147
0.29823159429525
-0.0011342478694342
0.29842815646202
-0.0011777877014681
0.2986318165239
-0.0012162542369831
0.29884365471424
-0.0012589848208612
0.29906155622104
-0.0012915618954421
0.29928814962411
-0.0013354591956303
0.29951881270724
-0.0013578344257308
-0.0014077329715843
0.29975970608911
0.27939535801018
-3.080920388587e-05
0.27940760207455
-9.2334776270888e-05
0.27942796009385
-0.00015395328112438
0.27945647801133
-0.00021562790234792
0.27949319324645
-0.00027737294817541
0.27953814223441
-0.00033911115183178
0.27959137185903
-0.00040073893580768
0.27965294385518
-0.00046218833619638
0.27972292096491
-0.00052338433355182
0.27980135797345
-0.00058426697365375
0.279888287108
-0.00064473778955686
0.27998373608186
-0.00070478486191354
0.28008772390342
-0.00076434681414859
0.28020030113862
-0.00082352067650397
0.28032151026725
-0.00088218794983167
0.28045144008
-0.00094050250653294
0.28059011147955
-0.00099809693087793
0.28073760634696
-0.0010552768164454
0.28089383462267
-0.0011112452111976
0.28105886913814
-0.0011668463489758
0.28123244606362
-0.0012204640805873
0.28141474463288
-0.0012742629151337
0.28160523747609
-0.0013247406927725
0.28180444559927
-0.001376995804646
0.28201128922791
-0.001423097845654
0.28222706848833
-0.0014747640610173
0.28244943016464
-0.0015139235513974
0.28268143641195
-0.0015674654225502
0.28291787662243
-0.0015942746164142
-0.0016556751599417
0.28316581883199
0.2637142178483
-3.4817573413922e-05
0.26372607437591
-0.00010419127364623
0.26374577087506
-0.00017364975016057
0.26377337136003
-0.0002432283576264
0.26380892671583
-0.00031292827496763
0.26385249115013
-0.00038267555776445
0.26390413995191
-0.00045238771002968
0.26396397375318
-0.00052202211061524
0.26403209950127
-0.00059151005565765
0.26410861712845
-0.0006607845755708
0.26419360118153
-0.00072972181827573
0.26428712143112
-0.00079830508785885
0.26438923961072
-0.00086646497096354
0.26450005737177
-0.00093433841542723
0.26461967241472
-0.0010018029714436
0.26474824027905
-0.00106907035007
0.26488584246808
-0.0011356990997883
0.26503263099194
-0.001202065320588
0.26518856118892
-0.0012671753889923
0.26535377262204
-0.0013320577631466
0.26552802118773
-0.0013947126277221
0.26571156793955
-0.0014578096484859
0.26590387347041
-0.0015170462054118
0.26610559248654
-0.001578714802502
0.26631556662798
-0.0016330719689602
0.26653533700949
-0.0016945344242347
0.26676230870389
-0.0017408952275426
0.26700000929796
-0.0018051659984452
0.26724262116687
-0.0018368864677869
-0.0019112248942589
0.26749817091999
0.24891315517107
-3.8680029371447e-05
0.2489245319169
-0.00011556799309621
0.24894341615017
-0.00019253395717714
0.24896989100514
-0.00026970318668658
0.24900402171365
-0.00034705895816722
0.24904588138019
-0.00042453519951932
0.24909557522439
-0.00050208153014108
0.24915324470003
-0.00057969156274359
0.24921904327663
-0.00065730860947957
0.2492931187354
-0.00073486001217688
0.24937559106242
-0.00081219412388914
0.24946657565654
-0.00088928966115597
0.24956618104713
-0.00096607034148248
0.24967456462699
-0.0010427219757545
0.24979188461467
-0.0011191229402847
0.24991836933906
-0.0011955550560579
0.25005416768923
-0.0012714974321468
0.25019950946857
-0.0013474070824415
0.2503544037235
-0.0014220696269078
0.25051906621103
-0.0014967202338414
0.25069328216557
-0.0015689285657788
0.25087740585086
-0.0016419333173371
0.25107089636899
-0.0017105367073386
0.2512745552828
-0.0017823737000419
0.25148715607659
-0.0018456727466101
0.25171049574275
-0.0019178740740986
0.2519417468283
-0.0019721462968587
0.25218491886344
-0.0020483380174284
0.25243359669217
-0.0020855642809371
-0.0021744098895962
0.25269678170431
0.23494276965781
-4.2362104825487e-05
0.23495356402096
-0.00012636233274544
0.23497146989576
-0.0002104398085778
0.23499658960964
-0.00029482287741455
0.23502900271396
-0.00037947203980211
0.23506880143587
-0.00046433389914895
0.23511612143667
-0.0005494015091946
0.23517114568933
-0.00063471579408388
0.23523407523111
-0.00072023813053423
0.23530510706
-0.00080589182079781
0.23538440855407
-0.00089149559831609
0.23547214305589
-0.00097702414378434
0.23556846889069
-0.0010623961577258
0.23567360239419
-0.0011478554611139
0.23578776648811
-0.0012332870166632
0.23591126650642
-0.001319055057189
0.2360443247886
-0.0014045556976693
0.23618725461813
-0.0014903368956048
0.23634012751887
-0.0015749425117178
0.23650324283907
-0.0016598355382969
0.23667642695735
-0.0017421126686747
0.2368601359183
-0.0018256422629796
0.23705384262145
-0.0019042433954633
0.23725850397714
-0.0019870350407037
0.23747284548751
-0.0020600142421518
0.23769892668858
-0.0021439552602975
0.23793371208204
-0.0022069316756118
0.23818169360884
-0.0022963195296964
0.23843589459238
-0.0023397652505464
-0.0024447791598605
0.23870626387764
0.22175643728739
-4.5829582644749e-05
0.22176654346946
-0.00013646849421608
0.2217833025063
-0.00022719882488432
0.22180683422206
-0.00031835457280986
0.22183723184355
-0.00040986964130761
0.22187460617462
-0.00050170821050662
0.22191912268189
-0.00059391799718731
0.22197100503427
-0.00068659812749097
0.22203050132828
-0.00077973440602616
0.22209785749961
-0.00087324797394697
0.22217328892393
-0.00096692700494731
0.22225700762457
-0.0010607428270752
0.22234922352058
-0.0011546120369003
0.22245021314382
-0.0012488450678303
0.22256026711264
-0.0013433409694517
0.2226797693309
-0.0014385572596942
0.2228090211678
-0.0015338075192644
0.2229484214966
-0.0016297372093156
0.22309811479155
-0.0017246357919666
0.22325848602996
-0.0018202067621548
0.22342942005234
-0.0019130466768324
0.22361147406045
-0.0020076962569322
0.22380416154484
-0.0020969308659563
0.22400858667128
-0.0021914601532637
0.22422346822761
-0.0022748957848233
0.22445111062664
-0.0023715976456408
0.22468832844768
-0.0024441494831652
0.22494006736508
-0.0025480584338101
0.22519886525035
-0.0025985631231137
-0.0027214668032796
0.22547555290748
0.20931015227281
-4.9049888044991e-05
0.20931947275973
-0.00014578896276262
0.20933492738251
-0.00024265342930993
0.20935665163375
-0.0003400788058024
0.20938475120075
-0.00043796919032117
0.20941935439964
-0.00053631139159161
0.20946065520166
-0.00063521878171575
0.20950891612036
-0.00073485902888709
0.20956443038526
-0.00083524865396754
0.20962749080676
-0.00093630837869914
0.20969835971109
-0.0010377958929212
0.2097772966491
-0.0011396797489535
0.2098645634364
-0.0012418788084746
0.2099604958363
-0.0013447774522221
0.21006545373299
-0.0014482988510503
0.21017989807607
-0.0015530015878785
0.21030421437598
-0.0016581238046681
0.21043888421048
-0.0017644070294898
0.21058413889405
-0.0018698904615697
0.21074044094066
-0.0019765087949304
0.21090776365195
-0.0020803693746114
0.2110867422996
-0.0021866748911532
0.21127698970565
-0.0022871782588635
0.21147969671467
-0.002394167149198
0.21169369355435
-0.0024888926116701
0.21192139412741
-0.0025992982059023
0.21215967020973
-0.0026824255529509
0.21241374781538
-0.0028021360271708
0.2126758897484
-0.0028607050444403
-0.0030032171410738
0.2129576400988
0.19756238060623
-5.1993948773882e-05
0.1975708320088
-0.00015424034891194
0.19758484504021
-0.00025666644425939
0.19760456943339
-0.00035980318257909
0.19763012183427
-0.00046352157497927
0.19766164618084
-0.00056783572205013
0.19769936231476
-0.00067293489973726
0.19774356831591
-0.00077906501424062
0.19779459922556
-0.0008862795480865
0.19785279166119
-0.00099450079890956
0.19791845227333
-0.0011034564899245
0.19799188548812
-0.0012131129487487
0.1980734031863
-0.0013233964919723
0.1981633976927
-0.001434771944083
0.19826229697723
-0.0015471981213575
0.19837063611261
-0.0016613407091808
0.198488885726
-0.0017763734043032
0.19861760779309
-0.0018931290829629
0.19875712761672
-0.0020094102719044
0.19890798121286
-0.0021273623778916
0.19907025175492
-0.0022426399037867
0.19924463475205
-0.0023610578754913
0.19943089626716
-0.0024734397614701
0.19963025094578
-0.0025935218153813
0.19984177599595
-0.0027004176496777
0.20006778283655
-0.0028253050344059
0.20030559548497
-0.0029202381895422
0.20056000884995
-0.0030565493805958
0.2008242547472
-0.0031249509307185
-0.0032885270937803
0.20110956471177
0.18647392140239
-5.4637967084188e-05
0.18648143747459
-0.00016175640613893
0.1864938989667
-0.00026912792131648
0.18651146795178
-0.00037737215260097
0.18653427012194
-0.00048632373021069
0.18656246265328
-0.00059602823849997
0.18659628782925
-0.00070676006097396
0.18663607500559
-0.00081885217589629
0.18668219607042
-0.00093240059842008
0.18673502669956
-0.0010473314136134
0.18679491344806
-0.0011633432241873
0.18686220216084
-0.0012804016473691
0.18693725062807
-0.0013984449452694
0.18702050408081
-0.0015180253829703
0.18711245366734
-0.0016391476942797
0.18721370554321
-0.0017625925715433
0.18732481013191
-0.0018874779797693
0.18744641111768
-0.0020147300556114
0.18757892194343
-0.0021419210848174
0.18772296302179
-0.0022714034435376
0.18787871772371
-0.0023983945932901
0.18804696801826
-0.0025293081577387
0.18822761064438
-0.002654082375585
0.18842194177153
-0.0027878529306383
0.18862922702838
-0.0029077028949174
0.18885180907458
-0.0030478870691083
0.18908734865917
-0.0031557777629304
0.18934042356934
-0.0033096242798431
0.18960501083495
-0.0033895381859599
-0.0035752451514263
0.18989172890382
0.17600777518632
-5.6964380420998e-05
0.17601430886854
-0.00016829007446884
0.17602514026889
-0.00027995930767068
0.17604044145685
-0.00039267332653166
0.17606034495708
-0.00050622721651003
0.17608501830891
-0.00062070157641121
0.17611472209833
-0.00073646383662278
0.17614981166943
-0.00085394173323696
0.17619068980976
-0.00097327872515037
0.17623776535222
-0.0010944069424963
0.17629141894431
-0.0012169968028708
0.17635203246401
-0.0013410151536887
0.17642000407348
-0.0014664165415249
0.1764958266039
-0.0015938479002145
0.1765800474011
-0.0017233684784886
0.17667333813859
-0.0018558832961014
0.17677632167982
-0.0019904615082854
0.17688972091221
-0.0021281292753822
0.17701403085428
-0.0022662310145366
0.17714996167414
-0.0024073342511686
0.17729778761182
-0.0025462205190475
0.17745839786729
-0.0026899184014262
0.17763179540431
-0.0028274799011407
0.17781941218418
-0.002975469699201
0.17802063074792
-0.0031089214476478
0.17823796946576
-0.0032652257761015
0.17846918857654
-0.0033869968631416
0.17871909159494
-0.0035595272879684
0.1789817007528
-0.0036521473340339
-0.003861426680551
0.17926788229257
0.16612901990983
-5.8962298015077e-05
0.16613454435215
-0.00017381450364764
0.16614370057726
-0.00028911551951944
0.16615666797005
-0.00040564070602996
0.16617358339505
-0.00052314262833585
0.16619462154829
-0.00064173971652737
0.16622005670912
-0.00076189898448055
0.16625026422897
-0.00088414924017777
0.16628567109854
-0.0010086855819964
0.16632671240415
-0.0011354482354162
0.16637379623604
-0.0012640806222433
0.16642733386492
-0.00139455277006
0.16648775692754
-0.0015268395917818
0.16655559830644
-0.0016616892667503
0.16663145367187
-0.0017992238316966
0.16671605156892
-0.0019404811809548
0.16681007902118
-0.0020844889485372
0.16691433066487
-0.0022323809071462
0.16702937768717
-0.0023812780251591
0.16715601589604
-0.0025339724485106
0.16729460922391
-0.0026848138357121
0.16744615332469
-0.0028414624911936
0.167610758915
-0.0029920854807943
0.16778999529882
-0.0031547060725848
0.16798336506505
-0.0033022912037718
0.16819356855429
-0.0034754292554435
0.16841847634792
-0.0036119046471715
0.1686631472323
-0.0038041981630064
0.16892163384043
-0.0039106339332313
-0.0041447898600355
0.16920499702972
0.15680469401387
-6.0627610143079e-05
0.15680920270119
-0.00017832317830621
0.15681667217248
-0.00029658497808533
0.15682728633277
-0.00041625485364416
0.15684118388739
-0.00053704017047805
0.15685854333078
-0.0006590991476023
0.15687964778725
-0.00078300342890513
0.15690488623897
-0.00090938768002866
0.1569347027064
-0.001038502037829
0.15696955098927
-0.0011702965068243
0.15700985933553
-0.0013043889572581
0.1570560608795
-0.0014407543028436
0.15710861304469
-0.0015793917459137
0.15716807981505
-0.0017211560260603
0.1572350956472
-0.0018662396529019
0.15731043548514
-0.0020158210079573
0.15739484062486
-0.0021688940774712
0.15748916730994
-0.0023267075815208
0.15759405509968
-0.0024861658044407
0.15771037805815
-0.0026502953966969
0.15783858583114
-0.0028130215987553
0.15797977597011
-0.0029826526205044
0.15813416742878
-0.0031464769301976
0.15830346408507
-0.0033240027199145
0.15848729181937
-0.0034861189295159
0.15868852920069
-0.0036766666284648
0.15890516528608
-0.0038285407245617
0.15914251464261
-0.0040415475117854
0.15939470604199
-0.0041628253250991
-0.0044229602410181
0.15967287643139
0.14800368598546
-6.1962654058745e-05
0.1480071916735
-0.00018182885382462
0.14801299476098
-0.00030238805309059
0.1480212808796
-0.0004245409600424
0.14803218801656
-0.0005479472956285
0.14804589503262
-0.00067280615224355
0.14806268907157
-0.00079979745693451
0.14808296629452
-0.00092966489246406
0.14810718059068
-0.0010627163239498
0.14813579667177
-0.0011989125781862
0.14816925550898
-0.0013378477850707
0.14820800389632
-0.0014795026809344
0.14825251694707
-0.0016239047875883
0.14830337958724
-0.0017720186571803
0.14836125494482
-0.0019241150015191
0.14842695175936
-0.0020815178135384
0.14850125469867
-0.0022431970079505
0.14858506937089
-0.0024105222449944
0.14867909437651
-0.0025801908015548
0.14878427148125
-0.002755472493142
0.14890112908038
-0.0029298791899857
0.14903085782158
-0.0031123813541557
0.14917378034634
-0.0032893994478904
0.14933173364133
-0.0034819560082655
0.14950446353812
-0.0036588488201497
0.14969504149481
-0.0038672445793464
0.14990154753854
-0.0040350467628096
0.15012956795742
-0.0042695679253679
0.15037328042746
-0.0044065377898715
-0.0046935305241697
0.15064385071683
0.13969663016378
-6.297554586908e-05
0.13969916291318
-0.00018436159000494
0.13970334875128
-0.00030657387813992
0.13970937246845
-0.00043056466473748
0.1397173689763
-0.00055594379180543
0.13972751406811
-0.00068295123318333
0.13974009423607
-0.00081237761490395
0.13975550633943
-0.00094507698660364
0.13977420718982
-0.0010814171659021
0.13979666457053
-0.0012213699510315
0.13982332531679
-0.0013645085239678
0.13985464140316
-0.0015108187602309
0.13989109810395
-0.001660361481559
0.13993328983865
-0.0018142103851296
0.13998189864789
-0.0019727238041012
0.14003775197526
-0.0021373711342573
0.14010166750503
-0.0023071125311768
0.14017458397451
-0.0024834387080245
0.14025725137197
-0.0026628581928093
0.14035066405983
-0.0028488851750743
0.14045542269328
-0.0030346378179589
0.14057279759464
-0.0032297562505016
0.14070320132533
-0.0034198031741519
0.14084860209909
-0.0036273567781876
0.14100883849654
-0.0038190852143566
0.14118722685261
-0.0040456329326769
0.14138190301587
-0.0042297229236977
0.14159879846122
-0.0044864633684706
0.14183197331996
-0.0046397126461498
-0.0049539920330255
0.1420924348323
0.13185580824105
-6.3679043031582e-05
0.13185741210208
-0.00018596543504141
0.13186005434202
-0.00030921610216419
0.13186391619439
-0.00043442650214001
0.13186912709574
-0.00056115467954683
0.13187585664167
-0.00068968076687953
0.13188438650219
-0.00082090746460256
0.13189510800215
-0.00095579847699498
0.13190847450031
-0.0010947836556517
0.1319249490878
-0.0012378445309952
0.13194497829142
-0.0013845377207847
0.13196901034007
-0.0015348508025431
0.13199753442347
-0.0016888855589484
0.13203114158971
-0.0018478175455019
0.13207052529216
-0.0020121075008124
0.13211651300341
-0.0021833588397907
0.13216994930863
-0.0023605488308015
0.13223178254421
-0.0025452719381403
0.13230281340318
-0.0027338890465959
0.13238406207116
-0.0029301338382424
0.13247620564674
-0.0031267813892759
0.1325805676366
-0.0033341182367227
0.13269764725496
-0.0035368827896265
0.1328295196716
-0.0037592291927445
0.1329760838378
-0.0039656493792703
0.13314088823383
-0.0042104373281389
0.1333221514
-0.0044109860897946
0.13352624490517
-0.0046905568737037
0.13374720908226
-0.0048606768228582
-0.0052020851576877
0.13399530220847
0.12445505643658
-6.4089120757224e-05
0.12445578650811
-0.00018669548375448
0.12445697800149
-0.00031040757219745
0.12445880610859
-0.00043625458702872
0.12446139302448
-0.0005637415751069
0.12446490009295
-0.00069318781703003
0.12446959967712
-0.00082560703244008
0.12447587076534
-0.00096206955063232
0.12448415757692
-0.0011030704541888
0.1244949123403
-0.0012485992825233
0.12450857700698
-0.0013982023765561
0.12452558769513
-0.0015518614804029
0.12454643214497
-0.001709729998946
0.12457168274694
-0.0018730681378615
0.12460203877985
-0.0020424635242863
0.12463830369674
-0.0022196237473637
0.12468135102993
-0.0024035961548666
0.1247321038453
-0.0025960247446108
0.12479143238275
-0.0027932175755489
0.12486032820323
-0.0029990296507742
0.12493958590438
-0.0032060390832136
0.1250305007211
-0.0034250330471265
0.12513372833329
-0.0036401103965334
0.12525134907545
-0.0038768499307286
0.12538338778478
-0.0040976880855589
0.1255334784785
-0.0043605280198633
0.12569986025463
-0.0045773678647215
0.12588919760335
-0.0048798942214946
0.1260965350506
-0.0050680142686995
-0.0054367760166282
0.1263312259124
0.11746968015371
-6.4225465828599e-05
0.11746959996113
-0.00018661525571352
0.11746945014253
-0.0003102577167762
0.11746939354753
-0.00043619795629739
0.11746954433571
-0.00056389232976185
0.11747005739426
-0.00069370084452539
0.11747119221919
-0.00082674182874868
0.11747330807611
-0.00096418538106694
0.11747683272154
-0.0011065950749505
0.11748220129925
-0.0012539678369728
0.1174898481662
-0.001405849221344
0.11750019285673
-0.0015622061495152
0.11751371863287
-0.0017232557542404
0.11753096566943
-0.0018903151539232
0.11755263383833
-0.0020641316729945
0.11757947468104
-0.0022464645701529
0.11761239695526
-0.0024365184094952
0.11765225126765
-0.0026358790378645
0.1177000193813
-0.0028409856706934
0.11775657307767
-0.0030555833295077
0.11782293012489
-0.0032723961138836
0.11790017144738
-0.0035022743544118
0.11798932132935
-0.0037292602647656
0.11809217045428
-0.0039796990435266
0.11820920667096
-0.0042147242916812
0.11834393126401
-0.0044952526039465
0.11849443516222
-0.004727871755246
0.11866805169086
-0.0050535107431622
0.11885808362497
-0.005258046195622
-0.005659376404715
0.11908068402231
0.11087637667636
-6.4117198459468e-05
0.11087556358372
-0.00018580211013136
0.11087419880959
-0.00030889288768373
0.11087242615304
-0.00043442524586168
0.11087035236016
-0.00056181848540608
0.1108681253908
-0.00069147382642684
0.11086598778551
-0.00082460417736298
0.11086427790526
-0.00096247545699166
0.11086340386004
-0.0011057209878014
0.11086377916558
-0.0012543431020415
0.11086582505349
-0.0014078950699194
0.11086994022728
-0.0015663212847887
0.11087659620481
-0.0017299116939118
0.110886292594
-0.0019000115057358
0.11089972282228
-0.0020775618643913
0.1109175703
-0.0022643120114365
0.11094078274423
-0.0024597308179143
0.1109700999673
-0.0026651962258442
0.11100665792677
-0.0028775435961427
0.11105110030023
-0.0031000256702642
0.11110482276969
-0.0033261185523788
0.11116839207975
-0.00356584363546
0.11124361915721
-0.0038044873153992
0.11133128659863
-0.0040673664603164
0.11143331913933
-0.0043167568100481
0.11155188252367
-0.0046138159682366
0.1116867423185
-0.0048627315321241
0.11184497869034
-0.005211747098463
0.11201429483689
-0.0054273623260371
-0.0058703646190703
0.11222528307018
0.1046531515284
-6.3802695439121e-05
0.1046517123139
-0.00018436282405505
0.10464926348191
-0.00030644398281917
0.10464595091917
-0.00043111261160126
0.10464189143734
-0.00055775893452076
0.10463720987687
-0.00068679219960492
0.10463211604265
-0.00081951027931375
0.10462692503881
-0.00095728439144101
0.10462202560036
-0.001100821489354
0.10461781758516
-0.0012501350281668
0.10461471608797
-0.0014047935150764
0.10461310301041
-0.0015647081503947
0.10461342451819
-0.0017302331455304
0.10461612685185
-0.0019027137838743
0.10462187039278
-0.0020833053504256
0.10463126257102
-0.0022737041355316
0.10464527556271
-0.0024737437563204
0.10466454142148
-0.0026844620325646
0.10469036487712
-0.0029033670012731
0.10472311284638
-0.0031327735911549
0.104764671705
-0.0033676773651417
0.10481481031459
-0.0036159822021817
0.1048766590642
-0.0038663360251724
0.10494884032743
-0.0041395476868381
0.10503662277324
-0.004404539222245
0.10513693208362
-0.0047141252482963
0.10525737338801
-0.0049831728092273
0.10539755351253
-0.0053519271980568
0.10555697707438
-0.0055867858639914
-0.0060612213163429
0.10574783379967
0.098779190872587
-6.3275222213236e-05
0.098777255571302
-0.00018242743885525
0.098773819240812
-0.00030300756788953
0.098769112266598
-0.00042640555443649
0.098763301084555
-0.00055194767175357
0.098756458450324
-0.00067994948692599
0.098748749413365
-0.00081180116592614
0.098740461194397
-0.00094899609762011
0.098731939831397
-0.001092300052704
0.098723566642593
-0.0012417617665576
0.098715757376676
-0.0013969841770372
0.098708894732329
-0.0015578454344459
0.09870340798497
-0.0017247463271248
0.098699698853845
-0.0018990045822196
0.098698362812418
-0.0020819692391656
0.098699925040807
-0.0022752662948718
0.098705314217599
-0.0024791328652404
0.098715087723529
-0.0026942354721636
0.098730621418577
-0.0029189006322872
0.098752129386759
-0.0031542814982664
0.098781825914081
-0.0033973738352016
0.098818859526483
-0.0036530157614919
0.098867558539219
-0.003915034989231
0.098924264129759
-0.0041962532329491
0.098998652672134
-0.0044789277245059
0.099079775376764
-0.0047952479172586
0.09918872896873
-0.005092126369763
0.099298322563456
-0.005461520764223
0.099451756565068
-0.005740219837424
0.099655098468679
-0.0062645631874424
0.3944487105165
0.0046584663031983
0.38994895905938
0.0044997514783508
0.38561241994445
0.0043365391359825
0.38144346926339
0.0041689507022457
0.37744634137978
0.0039971279049643
0.37362512756898
0.0038212138325143
0.36998376831586
0.0036413592751143
0.36652604460471
0.0034577237335429
0.36325557186339
0.0032704727640077
0.36017579633338
0.0030797755531097
0.35728999212003
0.0028858042367175
0.35460125769308
0.0026887344506989
0.35211251194423
0.0024887457728185
0.34982648970232
0.0022860222662348
0.34774573710658
0.0020807526202185
0.34587260681242
0.0018731303189461
0.344209253506
0.0016633533313157
0.34275762947487
0.0014516240562861
0.3415194806221
0.0012381488779813
0.34049634261875
0.001023138028782
0.33968953745841
0.00080680518579442
0.33910016906712
0.00058936841695799
0.33872911569051
0.00037105340227729
0.33857699615741
0.0001521195589921
0.33864424828506
-6.7252101756643e-05
0.3389313286199
-0.00028708030871386
0.33943811072866
-0.00050678208263348
0.34016437736375
-0.00072626660870748
0.34110970123524
-0.00094532384512324
0.34227343454717
-0.001163733285343