/*--------------------------------*- C++ -*----------------------------------*\
| =========                 |                                                 |
| \\      /  F ield         | OpenFOAM: The Open Source CFD Toolbox           |
|  \\    /   O peration     | Version:  2112                                  |
|   \\  /    A nd           | Website:  www.openfoam.com                      |
|    \\/     M anipulation  |                                                 |
\*---------------------------------------------------------------------------*/
FoamFile
{
    version     2.0;
    format      ascii;
    arch        "LSB;label=32;scalar=64";
    class       volVectorField;
    location    "13";
    object      U;
}
// * * * * * * * * * * * * * * * * * * * * * * * * * * * * * * * * * * * * * //

dimensions      [0 1 -1 0 0 0 0];

internalField   nonuniform List<vector> 
22000
(
(1.0000009545714 -2.5237629073111e-05 0)
(1.0000262027066 -7.6041942387235e-05 0)
(1.0000747070643 -0.00012660270759187 0)
(1.0001475171406 -0.00017696594017762 0)
(1.0002451118861 -0.00022721913330542 0)
(1.0003674646429 -0.00027728326870476 0)
(1.0005142810512 -0.00032698895234054 0)
(1.0006852035255 -0.00037619263323575 0)
(1.0008798969628 -0.00042479526611504 0)
(1.0010980681924 -0.00047275545335698 0)
(1.0013394252173 -0.00052003711131522 0)
(1.0016036785641 -0.00056664924076626 0)
(1.0018904991907 -0.00061254681067572 0)
(1.0021995671694 -0.00065774097773824 0)
(1.0025304949523 -0.00070210492863418 0)
(1.0028829270684 -0.00074567227442917 0)
(1.0032563815199 -0.00078821611117959 0)
(1.0036504804982 -0.00082992470991673 0)
(1.0040646279118 -0.00087039507240684 0)
(1.0044984968715 -0.00091015117722178 0)
(1.0049513296707 -0.00094831291394538 0)
(1.0054229468495 -0.00098610580697814 0)
(1.0059122694136 -0.001021516593462 0)
(1.0064194356203 -0.0010574086726419 0)
(1.0069427287446 -0.0010892129974174 0)
(1.0074829920656 -0.0011236365512876 0)
(1.0080372890873 -0.0011502672937448 0)
(1.0086079872998 -0.0011846978890731 0)
(1.009189826933 -0.0012030316508813 0)
(1.0097883401506 -0.0012413167380167 0)
(1.0000004195468 -7.426335081788e-05 0)
(1.0000256273739 -0.00022386878899312 0)
(1.0000743424571 -0.00037293746652275 0)
(1.0001475627585 -0.00052156277053956 0)
(1.0002458232805 -0.00066995988197034 0)
(1.0003691681243 -0.00081787795980327 0)
(1.0005173550136 -0.00096481759923646 0)
(1.0006900681463 -0.0011103601486911 0)
(1.0008869930909 -0.0012542134297706 0)
(1.0011078667199 -0.0013962478309492 0)
(1.0013524045252 -0.0015363472952673 0)
(1.0016203543132 -0.0016745306235334 0)
(1.001911377731 -0.001810664784857 0)
(1.0022252164872 -0.0019447843041147 0)
(1.0025614458764 -0.0020765220785007 0)
(1.0029198286429 -0.0022059739463049 0)
(1.0032997746703 -0.0023324738948669 0)
(1.0037011324358 -0.0024565568045372 0)
(1.0041230253727 -0.002577041771927 0)
(1.0045655839377 -0.0026954332133805 0)
(1.0050273968049 -0.002809176876116 0)
(1.0055092680355 -0.0029218045675894 0)
(1.0060086693929 -0.0030275061600114 0)
(1.0065278963261 -0.0031345208823298 0)
(1.0070620561589 -0.0032297088008041 0)
(1.0076167118953 -0.0033323106158013 0)
(1.0081820092906 -0.0034124865688494 0)
(1.0087705753474 -0.003514834853428 0)
(1.0093622409206 -0.0035711249784585 0)
(1.0099847326945 -0.0036841015903864 0)
(1.0000004656359 -0.00012126573745565 0)
(1.0000265753359 -0.00036550648038006 0)
(1.0000768895685 -0.00060910363725334 0)
(1.0001523580431 -0.00085219552784142 0)
(1.0002534845519 -0.0010950687088437 0)
(1.0003803248027 -0.0013372962631015 0)
(1.0005326699161 -0.0015780854246051 0)
(1.0007102595708 -0.0018167831127636 0)
(1.0009128221448 -0.0020529221839585 0)
(1.0011401546101 -0.0022862803689669 0)
(1.0013919931132 -0.0025166415754827 0)
(1.0016681480546 -0.002744022769528 0)
(1.0019682698139 -0.0029682007048721 0)
(1.0022922017704 -0.0031892586256776 0)
(1.0026394667304 -0.0034066064768907 0)
(1.0030100264547 -0.0036204367550502 0)
(1.0034031264154 -0.0038296238234105 0)
(1.003818994171 -0.0040350636811114 0)
(1.0042562972241 -0.0042347127991315 0)
(1.0047159297939 -0.0044311002771786 0)
(1.0051953810569 -0.0046198540659141 0)
(1.005697121524 -0.0048069875905173 0)
(1.0062161320221 -0.0049826240220927 0)
(1.0067584421643 -0.0051608148262484 0)
(1.0073135792104 -0.0053192203258743 0)
(1.0078954605526 -0.0054905893726363 0)
(1.0084817761469 -0.0056241689565395 0)
(1.0091037528492 -0.0057957779571656 0)
(1.0097136637615 -0.0058894392772877 0)
(1.0103806388921 -0.0060796883351007 0)
(1.0000005084564 -0.00016723163758074 0)
(1.0000275782781 -0.00050363236603073 0)
(1.000079686143 -0.00083928979162395 0)
(1.0001578291453 -0.0011744477498149 0)
(1.0002625201995 -0.0015094420283706 0)
(1.0003938243593 -0.0018436979891539 0)
(1.0005515545916 -0.0021761972487033 0)
(1.0007355126125 -0.0025061173778433 0)
(1.0009454834313 -0.0028328472012252 0)
(1.0011813524373 -0.0031560721570894 0)
(1.001442889634 -0.0034754521167116 0)
(1.0017299988712 -0.0037909911451437 0)
(1.0020423174125 -0.0041023740483665 0)
(1.0023798371406 -0.0044097758541262 0)
(1.0027420094 -0.0047124082001756 0)
(1.0031290859937 -0.0050106196662317 0)
(1.0035400829654 -0.0053027877577861 0)
(1.0039757782802 -0.0055902030525561 0)
(1.0044341932952 -0.0058698138118932 0)
(1.0049173247737 -0.0061452613123351 0)
(1.0054210939098 -0.0064101014813784 0)
(1.005950365864 -0.0066731381573795 0)
(1.0064965619722 -0.0069199469095785 0)
(1.007071065781 -0.0071711432292657 0)
(1.0076554316397 -0.0073940914325712 0)
(1.0082755376376 -0.0076367086220165 0)
(1.0088912978252 -0.0078247910434091 0)
(1.0095605318321 -0.0080690982679908 0)
(1.0101962498233 -0.0082001773616732 0)
(1.0109266429329 -0.0084727747765777 0)
(1.0000005606715 -0.00021232646427968 0)
(1.0000286810355 -0.0006387487103215 0)
(1.0000827522579 -0.0010643886722925 0)
(1.0001638439748 -0.0014896351292753 0)
(1.0002724955026 -0.0019148384985631 0)
(1.0004087934133 -0.0023393127347464 0)
(1.0005725822001 -0.0027618978449344 0)
(1.0007637449117 -0.0031816816817975 0)
(1.0009821422573 -0.0035979459627244 0)
(1.0012277791661 -0.0040102839539034 0)
(1.0015004763688 -0.0044182020351902 0)
(1.0018002664662 -0.0048216797420965 0)
(1.0021267776572 -0.0052203082051398 0)
(1.0024802026165 -0.0056144086806231 0)
(1.0028599091518 -0.0060030215147975 0)
(1.0032665343721 -0.0063867260817466 0)
(1.0036988079618 -0.0067633516562647 0)
(1.0041582313677 -0.0071346328407603 0)
(1.0046420033248 -0.0074963216481495 0)
(1.0051535587302 -0.0078532984769847 0)
(1.00568680938 -0.0081967103860891 0)
(1.0062497252568 -0.0085385697186619 0)
(1.0068291560251 -0.0088592527729917 0)
(1.0074433990778 -0.0091869484653654 0)
(1.0080637660782 -0.0094772450948411 0)
(1.0087315306297 -0.0097954645443634 0)
(1.0093837953455 -0.010040549824022 0)
(1.0101125042903 -0.0103632158369 0)
(1.0107803619632 -0.01053288668949 0)
(1.0115911094158 -0.010895829934187 0)
(1.0000006202643 -0.0002565947822155 0)
(1.0000298042742 -0.00077095620366166 0)
(1.0000858523038 -0.0012845950984672 0)
(1.0001699171007 -0.0017980905848053 0)
(1.0002825721723 -0.0023117626356865 0)
(1.0004239374947 -0.002824848931244 0)
(1.0005939044025 -0.00333613988271 0)
(1.0007924629173 -0.0038447232538645 0)
(1.0010195733997 -0.0043498156530251 0)
(1.0012753944896 -0.0048509191228747 0)
(1.0015598175844 -0.005347353729257 0)
(1.0018730423461 -0.0058390631379257 0)
(1.0022146968239 -0.006325543762149 0)
(1.0025852305932 -0.0068073278993272 0)
(1.0029839225982 -0.0072833153664092 0)
(1.0034118938468 -0.0077544056473661 0)
(1.0038675408211 -0.0082178193098883 0)
(1.0043532628053 -0.0086757991127704 0)
(1.0048652761768 -0.0091226800436089 0)
(1.0054087836117 -0.0095647412789975 0)
(1.0059752765701 -0.0099903191996649 0)
(1.0065765146261 -0.010415141118979 0)
(1.0071938258791 -0.010813599291646 0)
(1.007853903342 -0.011222670426348 0)
(1.0085156887718 -0.011584386548254 0)
(1.0092390815488 -0.011984162207167 0)
(1.0099336711405 -0.012290005005565 0)
(1.010732548231 -0.012698593425647 0)
(1.0114378892575 -0.012909069006225 0)
(1.0123442348796 -0.013372714559583 0)
(1.0000006849722 -0.00029995386850165 0)
(1.0000308487327 -0.00089997700920744 0)
(1.0000887026981 -0.0014994525474676 0)
(1.0001754914377 -0.0020992011150898 0)
(1.0002918290707 -0.0026994643870766 0)
(1.0004378805836 -0.0032994423257998 0)
(1.0006136004996 -0.0038979761794637 0)
(1.0008191131759 -0.0044942524294034 0)
(1.0010545047929 -0.0050874702959739 0)
(1.0013201237152 -0.0056770446014519 0)
(1.0016159547346 -0.0062620761895916 0)
(1.0019424052624 -0.0068424641190862 0)
(1.0022991165639 -0.0074176115086535 0)
(1.0026868539101 -0.0079883364386333 0)
(1.0031048087184 -0.0085534335814309 0)
(1.0035546863398 -0.0091142255673084 0)
(1.0040345139788 -0.0096672591442757 0)
(1.004547762008 -0.010215364208409 0)
(1.0050895241791 -0.010751215406694 0)
(1.0056670905419 -0.011282679131474 0)
(1.0062691597376 -0.011794830934732 0)
(1.0069119300271 -0.012307689896051 0)
(1.0075703389421 -0.012788776973285 0)
(1.0082808613501 -0.013285228462565 0)
(1.00898811871 -0.013723510164973 0)
(1.009773620853 -0.014212155881085 0)
(1.0105151613015 -0.014583644475352 0)
(1.0113933914357 -0.015087359789293 0)
(1.0121407294708 -0.015341893038606 0)
(1.0131562929593 -0.015918620104568 0)
(1.0000007524086 -0.00034220742015985 0)
(1.0000317187405 -0.0010252036950375 0)
(1.0000910297284 -0.0017079526004683 0)
(1.0001800284661 -0.0023915710887146 0)
(1.0002993755136 -0.0030761747679398 0)
(1.0004492923692 -0.0037609695012729 0)
(1.0006298133845 -0.0044449558425098 0)
(1.0008412247 -0.0051275257963126 0)
(1.0010837652089 -0.0058079143835022 0)
(1.0013580096185 -0.006485457096265 0)
(1.0016640609066 -0.0071590045318119 0)
(1.0020025761911 -0.007828406291143 0)
(1.0023732272752 -0.0084929771452347 0)
(1.0027771551158 -0.0091539045824499 0)
(1.0032134716102 -0.0098099185572553 0)
(1.0036845665096 -0.010462880117052 0)
(1.0041880737497 -0.011108596338946 0)
(1.004728703318 -0.011750577480172 0)
(1.0053003099873 -0.012379581372028 0)
(1.0059125740852 -0.013005274732072 0)
(1.0065510774656 -0.013608989492898 0)
(1.0072370586415 -0.014215666945397 0)
(1.0079382979508 -0.014784997073752 0)
(1.0087023098207 -0.015375761714668 0)
(1.0094576759212 -0.015896688273404 0)
(1.0103101853337 -0.01648269671426 0)
(1.0111020731175 -0.016925790281853 0)
(1.0120672067884 -0.017535306144009 0)
(1.0128602293167 -0.017838273773632 0)
(1.0139968111573 -0.01854229187769 0)
(1.0000008204801 -0.00038307670033243 0)
(1.0000323253617 -0.001145794281675 0)
(1.0000925787731 -0.0019086977774492 0)
(1.000183026569 -0.0026732566083738 0)
(1.0003043805981 -0.0034394131925824 0)
(1.0004569299345 -0.0042064269860661 0)
(1.0006408051196 -0.0049735722753261 0)
(1.0008564806324 -0.0057405592847847 0)
(1.0011043746311 -0.006506716790465 0)
(1.0013853237714 -0.007271313042933 0)
(1.0016995748656 -0.0080329208731194 0)
(1.0020480761092 -0.0087913401678946 0)
(1.0024305503085 -0.0095458067759219 0)
(1.0028485729199 -0.010297968540883 0)
(1.0033011907723 -0.011046536933496 0)
(1.0037915741712 -0.011794036617604 0)
(1.004316953048 -0.012535473288525 0)
(1.0048834353431 -0.013275142977972 0)
(1.0054835489629 -0.014001628668662 0)
(1.0061296411868 -0.014726628797746 0)
(1.0068039148757 -0.015427236418846 0)
(1.0075331814624 -0.016133978523585 0)
(1.0082774312103 -0.016797720539697 0)
(1.0090963088924 -0.017490438186245 0)
(1.0099009241743 -0.01810087055011 0)
(1.0108236118489 -0.018793710294258 0)
(1.0116679372428 -0.019315372553033 0)
(1.0127256908538 -0.020042625060157 0)
(1.0135672067673 -0.020399605319295 0)
(1.0148345055352 -0.021246671807487 0)
(1.0000008868033 -0.00042223368295062 0)
(1.0000325872847 -0.0012607686738626 0)
(1.0000931188272 -0.0021000598206119 0)
(1.0001840343599 -0.0029419854030047 0)
(1.0003061007817 -0.0037862688311697 0)
(1.0004596833588 -0.0046322730219086 0)
(1.000645023046 -0.0054796632902998 0)
(1.0008628065116 -0.006328583645899 0)
(1.0011136562068 -0.0071785183881562 0)
(1.0013987035831 -0.0080286847071099 0)
(1.0017183647425 -0.0088773554513787 0)
(1.0020739174377 -0.0097242853320485 0)
(1.0024651583163 -0.010568646604462 0)
(1.00289415162 -0.011412643255 0)
(1.0033599000901 -0.012255022129214 0)
(1.0038664416411 -0.0130991022896 0)
(1.0044106068637 -0.013939037796203 0)
(1.0050000417427 -0.014780021842201 0)
(1.0056258942184 -0.015608219460733 0)
(1.0063034157166 -0.016437597207435 0)
(1.0070112435074 -0.017240529651096 0)
(1.0077822032394 -0.018053795228212 0)
(1.0085680259752 -0.018818458550945 0)
(1.0094413604672 -0.019621232222864 0)
(1.0102947729216 -0.020328644308875 0)
(1.0112889166225 -0.021138524031009 0)
(1.0121863615264 -0.02174663753873 0)
(1.0133403912606 -0.022604582711045 0)
(1.0142322768777 -0.023022422465966 0)
(1.0156375872666 -0.024029523622201 0)
(1.0000009497825 -0.00045933310126875 0)
(1.0000324394532 -0.0013691062169318 0)
(1.0000924575021 -0.0022803385554796 0)
(1.0001826708021 -0.0031953713445535 0)
(1.0003039071846 -0.0041136673340421 0)
(1.0004566146654 -0.0050347452776112 0)
(1.0006411554967 -0.0059587799081958 0)
(1.0008584467125 -0.0068864642642635 0)
(1.0011093367781 -0.0078175025875072 0)
(1.0013952787307 -0.0087510796043398 0)
(1.0017168826237 -0.0096851529746511 0)
(1.0020757876366 -0.010619439861501 0)
(1.0024718903811 -0.011553072842327 0)
(1.0029077878556 -0.012488907396056 0)
(1.0033824695709 -0.013425792495266 0)
(1.0039009084013 -0.014367967493675 0)
(1.0044595648073 -0.015308711705465 0)
(1.0050677256304 -0.016254212957771 0)
(1.0057151603677 -0.017188025048587 0)
(1.0064201906493 -0.018126584545885 0)
(1.00715781369 -0.019037145361371 0)
(1.0079671663808 -0.019963329699774 0)
(1.0087914771685 -0.020835551104299 0)
(1.0097169766675 -0.021756651746948 0)
(1.0106170658044 -0.022568954462709 0)
(1.0116818757449 -0.023506515038105 0)
(1.0126315932929 -0.024209758298207 0)
(1.0138832434844 -0.025212074455402 0)
(1.0148263157129 -0.025698909172869 0)
(1.0163741931517 -0.026883819274879 0)
(1.0000010072049 -0.00049403556101598 0)
(1.0000318336216 -0.0014698156885381 0)
(1.0000904616526 -0.0024478836583763 0)
(1.0001786677359 -0.0034310917726022 0)
(1.0002973426489 -0.0044186038416882 0)
(1.0004470226591 -0.0054101472537773 0)
(1.0006282028154 -0.0064065232741278 0)
(1.0008420434237 -0.0074090857316925 0)
(1.0010896392118 -0.0084178258155874 0)
(1.0013727814332 -0.0094319154604428 0)
(1.0016922992147 -0.010448991890895 0)
(1.0020502100255 -0.011468741310556 0)
(1.0024465452871 -0.012490293524953 0)
(1.0028844538281 -0.013517240766936 0)
(1.003362968445 -0.014548623778001 0)
(1.0038880142708 -0.01558970466079 0)
(1.0044557746947 -0.016632919509725 0)
(1.0050771770337 -0.017685493030107 0)
(1.0057407575705 -0.018728294321288 0)
(1.0064678701562 -0.019780298334667 0)
(1.0072300867949 -0.020803467490149 0)
(1.0080727635937 -0.021848574510672 0)
(1.0089309315709 -0.022834957110782 0)
(1.0099042519219 -0.023882425664917 0)
(1.0108473162531 -0.024807863592876 0)
(1.0119796877005 -0.02588370086339 0)
(1.0129792601776 -0.026691503354657 0)
(1.0143273247152 -0.027852078776979 0)
(1.0153212542092 -0.02841747801678 0)
(1.0170131511823 -0.029798335021393 0)
(1.0000010574112 -0.00052602591498624 0)
(1.0000307388681 -0.0015619871185978 0)
(1.0000870471103 -0.0026011826270348 0)
(1.0001718565014 -0.0036470165043717 0)
(1.0002861189876 -0.0046983170152294 0)
(1.0004304601594 -0.0057550701717401 0)
(1.0006055173832 -0.0068188154848491 0)
(1.0008126986804 -0.0078916725736017 0)
(1.0010533623557 -0.0089739866327598 0)
(1.0013296416928 -0.01006493591483 0)
(1.0016426154002 -0.011161842797651 0)
(1.0019946749575 -0.012264367247949 0)
(1.0023860380446 -0.013371688341287 0)
(1.0028203814257 -0.014488203941728 0)
(1.0032968834264 -0.015613263772288 0)
(1.0038223496641 -0.016753217564643 0)
(1.0043928986755 -0.017899768157354 0)
(1.0050208941014 -0.019061116765349 0)
(1.0056940895181 -0.020215590031393 0)
(1.0064363499057 -0.021384467441056 0)
(1.0072167724224 -0.022524777424787 0)
(1.0080857415426 -0.023693985976844 0)
(1.0089720294893 -0.024801131665648 0)
(1.0099862124992 -0.025982032071398 0)
(1.0109678536246 -0.027029677359436 0)
(1.0121610853265 -0.028252920914399 0)
(1.013207983297 -0.029176505143029 0)
(1.0146468894861 -0.030507862375216 0)
(1.015690633357 -0.031162751626896 0)
(1.0175253643486 -0.032757958347741 0)
(1.0000010991883 -0.00055503321393765 0)
(1.0000291417912 -0.0016448502727172 0)
(1.0000821787251 -0.0027389534415034 0)
(1.0001621663336 -0.0038413319256243 0)
(1.0002701107403 -0.0049504439632352 0)
(1.0004067248036 -0.0060665804418339 0)
(1.0005727933535 -0.007192121219498 0)
(1.000769971886 -0.0083300488149042 0)
(1.0009998919243 -0.0094811240793769 0)
(1.0012650240078 -0.010644552933925 0)
(1.0015667163039 -0.011817351444974 0)
(1.0019077218842 -0.012999163240647 0)
(1.0022884909067 -0.014189272055754 0)
(1.0027131949003 -0.015392946937585 0)
(1.0031812518388 -0.016609969154512 0)
(1.0037002652139 -0.017847835837119 0)
(1.0042664866674 -0.019097638126073 0)
(1.0048935121844 -0.020368512756586 0)
(1.0055687412544 -0.021636390787723 0)
(1.0063180306439 -0.022924656362628 0)
(1.0071089758519 -0.024185811287679 0)
(1.0079956766675 -0.025483436754173 0)
(1.0089029244559 -0.026717425113906 0)
(1.00994890937 -0.028037919678685 0)
(1.0109637207807 -0.029217035023609 0)
(1.0122074845431 -0.030595073661216 0)
(1.0133008546123 -0.031648895347897 0)
(1.0148160526183 -0.033156460351281 0)
(1.0159192186032 -0.033925327300677 0)
(1.017881557253 -0.035743811804765 0)
(1.0000011312379 -0.00058084445447585 0)
(1.0000270459087 -0.0017178146322064 0)
(1.0000758692932 -0.0028602127964939 0)
(1.0001496204773 -0.0040126377228695 0)
(1.0002493500924 -0.0051731452234662 0)
(1.000375853619 -0.006342371968895 0)
(1.0005300615129 -0.0075236278747108 0)
(1.0007138725424 -0.0087208452793418 0)
(1.0009291888204 -0.0099352553899645 0)
(1.0011788118726 -0.011166116061318 0)
(1.0014643602461 -0.012410144627079 0)
(1.0017889428275 -0.013666987883351 0)
(1.0021532516364 -0.014936078252054 0)
(1.0025619483904 -0.016223635969667 0)
(1.0030147169521 -0.017529967543917 0)
(1.0035199519145 -0.018863817346041 0)
(1.0040740886243 -0.020215731218104 0)
(1.0046919458901 -0.021595851255987 0)
(1.0053606610696 -0.022977718115262 0)
(1.0061080660584 -0.024386913931323 0)
(1.0069004114249 -0.025771385071676 0)
(1.0077954671607 -0.027201036177905 0)
(1.0087143039853 -0.028566521062845 0)
(1.0097826217577 -0.030032717552298 0)
(1.0108214180717 -0.031350473188679 0)
(1.0121066689705 -0.032892459221039 0)
(1.0132380504531 -0.034086342663678 0)
(1.0148215301258 -0.035782798263924 0)
(1.015977346944 -0.036678081023013 0)
(1.0180594203947 -0.038735207345466 0)
(1.0000011530287 -0.00060331244810741 0)
(1.0000244700576 -0.0017804913872603 0)
(1.0000681761642 -0.0029643122929191 0)
(1.0001343317953 -0.0041599984835306 0)
(1.0002240188614 -0.0053651734864394 0)
(1.0003381082358 -0.0065808537602033 0)
(1.0004776690402 -0.0078113553793596 0)
(1.0006448327494 -0.0090616338453913 0)
(1.0008417604032 -0.010333438252749 0)
(1.0010715710394 -0.011626100916724 0)
(1.0013361430664 -0.012936051542707 0)
(1.0016389296685 -0.01426296069647 0)
(1.0019808592727 -0.015606452802182 0)
(1.0023670739663 -0.016973771988981 0)
(1.0027975252279 -0.01836583863714 0)
(1.0032813932873 -0.019792740127237 0)
(1.003815314445 -0.021244550678201 0)
(1.0044153304168 -0.022732493588879 0)
(1.0050683612017 -0.024227753463902 0)
(1.0058042255987 -0.025758203566849 0)
(1.0065879168569 -0.0272672621446 0)
(1.007480898319 -0.028831333528987 0)
(1.0084006629073 -0.030331830996071 0)
(1.0094804407883 -0.03194868696008 0)
(1.010532354992 -0.033411271976473 0)
(1.011848242303 -0.035125278845477 0)
(1.0130071178881 -0.036468360393116 0)
(1.0146487724313 -0.038365444585039 0)
(1.0158480461362 -0.039399062922564 0)
(1.0180393042345 -0.041709254641187 0)
(1.0000011638461 -0.00062235890115491 0)
(1.0000214478146 -0.001832700406026 0)
(1.0000591984302 -0.0030509510665073 0)
(1.0001164930588 -0.0042829633988367 0)
(1.0001944312258 -0.0055259011867827 0)
(1.0002939493037 -0.0067811869368933 0)
(1.0004162434654 -0.0080542041324362 0)
(1.000563661183 -0.0093509900219227 0)
(1.000738602839 -0.010673851080806 0)
(1.0009444828228 -0.012022213540865 0)
(1.0011834199553 -0.013392232618941 0)
(1.0014591910884 -0.014783621992131 0)
(1.0017729452954 -0.016196239486123 0)
(1.0021302844365 -0.017638416026565 0)
(1.0025314150741 -0.019111768152727 0)
(1.0029862817401 -0.020627812675226 0)
(1.0034917217586 -0.022176231669784 0)
(1.0040649841499 -0.023769409589212 0)
(1.0046928004757 -0.025376232350592 0)
(1.0054069665821 -0.027026965210883 0)
(1.0061712992025 -0.028660558384482 0)
(1.0070509462308 -0.030360088354259 0)
(1.0079599798341 -0.031997773175239 0)
(1.0090391365374 -0.033768894303485 0)
(1.0100919315855 -0.035381215166364 0)
(1.011425964348 -0.037274030285273 0)
(1.0126000707535 -0.038774308161711 0)
(1.0142876134847 -0.040882566913257 0)
(1.0155190044396 -0.042065699241447 0)
(1.0178057926422 -0.04464129683197 0)
(1.0000011639607 -0.00063797322295044 0)
(1.0000180239152 -0.0018744656706867 0)
(1.0000490675639 -0.0031201683466715 0)
(1.0000963636247 -0.004381557970413 0)
(1.0001610130824 -0.0056553135652899 0)
(1.0002440054734 -0.0069432803758474 0)
(1.000346648802 -0.0082519549937538 0)
(1.0004714832662 -0.0095884987044121 0)
(1.0006211233677 -0.010955807276036 0)
(1.0007992488858 -0.012353416134061 0)
(1.0010081931543 -0.013777222288169 0)
(1.0012520260802 -0.015226997518116 0)
(1.0015320934345 -0.016702872776739 0)
(1.0018544223058 -0.018214312201016 0)
(1.0022194506168 -0.019763706177197 0)
(1.0026378473464 -0.021364069670316 0)
(1.003106637031 -0.023004780822085 0)
(1.0036442362099 -0.024699459496729 0)
(1.0042372092873 -0.026414777788771 0)
(1.0049192882796 -0.028183492784614 0)
(1.0056531927861 -0.029940182092762 0)
(1.0065077010469 -0.03177475010655 0)
(1.0073936302032 -0.033550313865615 0)
(1.0084591390662 -0.035477773026007 0)
(1.0094994665265 -0.037243229412082 0)
(1.0108377624731 -0.039320166764316 0)
(1.0120133893484 -0.040984254566563 0)
(1.013732611151 -0.043312918047174 0)
(1.0149829044198 -0.044655479262116 0)
(1.017348496563 -0.047506363369129 0)
(1.0000011533141 -0.00065020758312768 0)
(1.0000142515942 -0.001905998427803 0)
(1.0000379394369 -0.0031723174279049 0)
(1.0000742491233 -0.0044562507024042 0)
(1.0001242699372 -0.0057539695688992 0)
(1.0001890296749 -0.0070677486017608 0)
(1.0002699294431 -0.0084052280522024 0)
(1.000369671128 -0.0097747170796902 0)
(1.0004910536704 -0.011179725602359 0)
(1.0006379824652 -0.012619905363566 0)
(1.0008129785272 -0.014090917360922 0)
(1.0010203630615 -0.015592596378613 0)
(1.0012616551841 -0.017125391538626 0)
(1.0015432527366 -0.018699920367421 0)
(1.0018658006318 -0.020319430582832 0)
(1.0022406182516 -0.021998469260197 0)
(1.0026649085528 -0.023726222024063 0)
(1.0031581655807 -0.025517587978461 0)
(1.0037068295667 -0.027337154688998 0)
(1.0043464577864 -0.029220241761856 0)
(1.0050388071304 -0.031097206123331 0)
(1.0058561066537 -0.033064893703633 0)
(1.0067062126373 -0.034977461527004 0)
(1.0077443212393 -0.037061694404313 0)
(1.0087581190303 -0.038981903964408 0)
(1.0100853925323 -0.041246710109162 0)
(1.0112478072919 -0.04307940753719 0)
(1.0129827430101 -0.045636569364359 0)
(1.0142372202519 -0.0471472204934 0)
(1.0166629175505 -0.050280500905348 0)
(1.000001133166 -0.00065916593526691 0)
(1.000010184548 -0.0019276709653272 0)
(1.0000259761609 -0.0032080213346033 0)
(1.0000504763664 -0.0045078934327856 0)
(1.0000847501464 -0.0058229302442652 0)
(1.0001298446898 -0.0071558305170824 0)
(1.0001872364412 -0.008515394205183 0)
(1.0002597489198 -0.0099110811691586 0)
(1.0003503376373 -0.011347038387879 0)
(1.0004630789555 -0.012823030702821 0)
(1.0006006625022 -0.014334517330143 0)
(1.0007675948765 -0.015881375353016 0)
(1.00096556355 -0.017464430522619 0)
(1.0012012394019 -0.019095421570125 0)
(1.0014754868557 -0.020778570367492 0)
(1.0018001230004 -0.022529918465018 0)
(1.0021725924772 -0.024338650182673 0)
(1.0026132419503 -0.02622089243297 0)
(1.0031085707504 -0.028139406217715 0)
(1.0036956148787 -0.030132010249785 0)
(1.0043355903054 -0.032125132689229 0)
(1.0051035242501 -0.034222572596386 0)
(1.0059052867915 -0.036269653883893 0)
(1.0069015807856 -0.038509541488033 0)
(1.0078748912818 -0.040583989121325 0)
(1.0091740649343 -0.043038816945956 0)
(1.0103083914949 -0.045042241720318 0)
(1.0120396339732 -0.047834853859882 0)
(1.0132848448513 -0.049519563609311 0)
(1.0157447531323 -0.0529407534713 0)
(1.0000011005329 -0.00066499972368479 0)
(1.000005878005 -0.001939965011162 0)
(1.0000133376209 -0.0032280961380211 0)
(1.0000253683695 -0.0045376138790538 0)
(1.0000430057746 -0.005863619308648 0)
(1.0000672924435 -0.0072092260072575 0)
(1.0000997645628 -0.0085843965594212 0)
(1.0001433111916 -0.0099997147715289 0)
(1.0002010197286 -0.011459981206771 0)
(1.0002770629016 -0.012965056667381 0)
(1.0003743143264 -0.014510261828482 0)
(1.0004973636748 -0.016095467878874 0)
(1.0006481167433 -0.017721969919443 0)
(1.0008333195059 -0.019402502079523 0)
(1.0010541689815 -0.021142441032371 0)
(1.00132263471 -0.022959124073773 0)
(1.0016366850465 -0.024842102695931 0)
(1.0020169633612 -0.026808429208562 0)
(1.0024506383976 -0.028819646104104 0)
(1.0029753005027 -0.030915596426205 0)
(1.0035527758224 -0.033019578129773 0)
(1.0042592732023 -0.035241774832322 0)
(1.0050007734897 -0.037419422224808 0)
(1.0059406391655 -0.039811847664142 0)
(1.0068599142624 -0.042038336186682 0)
(1.0081132276414 -0.044682634819456 0)
(1.0092045947008 -0.046856623355271 0)
(1.0109090380194 -0.049887315836087 0)
(1.0121313688078 -0.051748644766679 0)
(1.0145963620081 -0.055457943078099 0)
(1.0000010542995 -0.00066790484625091 0)
(1.0000013877516 -0.0019435221385228 0)
(1.0000002019323 -0.0032335551062387 0)
(0.9999992778942 -0.0045467562226406 0)
(0.99999961536866 -0.005877686359804 0)
(1.000002230839 -0.007229862224672 0)
(1.0000087257703 -0.0086144056101978 0)
(1.0000219922283 -0.010042995467767 0)
(1.0000452217316 -0.01152110379598 0)
(1.0000825660083 -0.013048636766185 0)
(1.0001371288709 -0.014620835367892 0)
(1.0002134369613 -0.016237474163312 0)
(1.0003137733193 -0.017900460353742 0)
(1.0004446340967 -0.019623309897268 0)
(1.0006078571234 -0.021412865008346 0)
(1.0008148883499 -0.023287330333398 0)
(1.0010649174089 -0.025237301555261 0)
(1.0013776547832 -0.027279927800736 0)
(1.0017424569433 -0.029376840522416 0)
(1.0021952517821 -0.031568361089661 0)
(1.0027014021344 -0.033776874767786 0)
(1.003334294606 -0.036116415284384 0)
(1.0040051788406 -0.038419375886986 0)
(1.0048733330469 -0.040957965120616 0)
(1.005726951034 -0.043332669375149 0)
(1.0069157210979 -0.04616239177669 0)
(1.0079524257712 -0.048505029677346 0)
(1.0096048135147 -0.051768666477371 0)
(1.0107963189387 -0.053816080235939 0)
(1.0132290426927 -0.057790602724169 0)
(1.0000009906123 -0.00066818193333838 0)
(0.99999684729586 -0.0019392521955228 0)
(0.99998688841906 -0.0032258200085711 0)
(0.99997275122349 -0.0045371689802522 0)
(0.9999553896514 -0.0058673773331331 0)
(0.99993577658542 -0.007220316249655 0)
(0.99991556802983 -0.0086081871176095 0)
(0.99989759701815 -0.010043753470397 0)
(0.99988517027765 -0.011533260955039 0)
(0.99988233557317 -0.013076684682626 0)
(0.99989247877949 -0.014669256229589 0)
(0.99991986725227 -0.016310489841736 0)
(0.99996733748607 -0.018002974541138 0)
(1.0000407113491 -0.019760664649995 0)
(1.0001429313374 -0.021592267494641 0)
(1.0002839939693 -0.023516280465484 0)
(1.0004654949073 -0.025525466470099 0)
(1.0007042321311 -0.027635739348503 0)
(1.000994534172 -0.029811151860234 0)
(1.0013664057048 -0.032089366857821 0)
(1.0017948273884 -0.034396387576455 0)
(1.0023414110798 -0.036843886202732 0)
(1.0029352119106 -0.039267625322505 0)
(1.0037134666465 -0.041942585451243 0)
(1.0044962960275 -0.044462229347874 0)
(1.0055950097917 -0.047470877454234 0)
(1.0065762148105 -0.049977494559779 0)
(1.008145716606 -0.05348476266141 0)
(1.0093101325443 -0.055688716151957 0)
(1.0116691096364 -0.059980014504776 0)
(1.0000008942224 -0.00066632173680996 0)
(0.99999245945765 -0.0019287526140943 0)
(0.99997387657333 -0.0032073522353978 0)
(0.99994647649962 -0.0045120787390585 0)
(0.99991124542414 -0.0058367227831489 0)
(0.99986923040377 -0.007185458978481 0)
(0.99982205707632 -0.0085713538161941 0)
(0.99977229639084 -0.010008147110076 0)
(0.99972330758143 -0.01150289182763 0)
(0.99967908316964 -0.013055786220202 0)
(0.99964342997236 -0.014662321018352 0)
(0.99962035479647 -0.01632181013482 0)
(0.99961331656091 -0.018037613307707 0)
(0.99962711828874 -0.019823765785299 0)
(0.99966593082527 -0.02169105461032 0)
(0.99973753257927 -0.02365758472684 0)
(0.9998467656896 -0.025719491257266 0)
(1.000005881116 -0.027890009530474 0)
(1.0002168837726 -0.030138920486837 0)
(1.0004995933813 -0.032497022755114 0)
(1.000845558169 -0.034901556697341 0)
(1.0012934823921 -0.03745078618572 0)
(1.0018074931508 -0.040000745694033 0)
(1.002475316673 -0.042805538173049 0)
(1.0031904783154 -0.045483365006827 0)
(1.0041611987808 -0.048665719963315 0)
(1.005102813827 -0.051355504308092 0)
(1.0065205903821 -0.055138184833527 0)
(1.0077258004792 -0.057493008940464 0)
(1.0099396495798 -0.062369221076486 0)
(1.0000006787462 -0.00066350682558479 0)
(0.9999878737864 -0.0019156554795228 0)
(0.99996089156237 -0.0031851855194633 0)
(0.99992013307291 -0.0044827969754367 0)
(0.99986678630682 -0.0058017572060464 0)
(0.99980231055622 -0.0071464060103712 0)
(0.99972826732608 -0.0085307252781133 0)
(0.99964675232271 -0.0099695117068216 0)
(0.99956092934656 -0.011470480779018 0)
(0.9994746151528 -0.013033891223028 0)
(0.99939195977819 -0.014655469488586 0)
(0.99931697550344 -0.016334418473678 0)
(0.99925373896652 -0.018075270859786 0)
(0.99920631511063 -0.019892564912888 0)
(0.99917967824942 -0.021799857947141 0)
(0.9991795496153 -0.023814686977751 0)
(0.99921311829708 -0.025937353013744 0)
(0.99928845412778 -0.028176745305764 0)