/*--------------------------------*- C++ -*----------------------------------*\
| =========                 |                                                 |
| \\      /  F ield         | OpenFOAM: The Open Source CFD Toolbox           |
|  \\    /   O peration     | Version:  2112                                  |
|   \\  /    A nd           | Website:  www.openfoam.com                      |
|    \\/     M anipulation  |                                                 |
\*---------------------------------------------------------------------------*/
FoamFile
{
    version     2.0;
    format      ascii;
    arch        "LSB;label=32;scalar=64";
    class       volScalarField;
    location    "15.8";
    object      p;
}
// * * * * * * * * * * * * * * * * * * * * * * * * * * * * * * * * * * * * * //

dimensions      [0 2 -2 0 0 0 0];

internalField   nonuniform List<scalar> 
22000
(
0.049786455553746
0.049764344723059
0.049718723378755
0.049648399864722
0.049552842523623
0.049432055574849
0.049286256827755
0.049115654915515
0.048920380742994
0.048700509488864
0.048456099312675
0.048187221557391
0.047893969687251
0.047576464110073
0.04723484235377
0.046869266606405
0.046479909227716
0.046066976888401
0.045630679938858
0.045171285091127
0.044689041617881
0.04418429571673
0.043657322159124
0.043108583936555
0.042538348376041
0.04194726927519
0.041335517063278
0.040704089704715
0.040052838162276
0.039383403053949
0.050200023850736
0.050176926549124
0.050130276855941
0.050058974427827
0.049962427222857
0.049840558175098
0.049693528818233
0.049521516483491
0.04932463270465
0.049102935539011
0.048856462952685
0.048585263574746
0.048289404553776
0.047968980142126
0.047624098603352
0.047254895915884
0.04686151215872
0.046444128796079
0.046002918962196
0.045538129241708
0.045049964011477
0.044538763084138
0.044004740798817
0.04344838087279
0.042869850306274
0.042269873124736
0.041648421409957
0.041006641426625
0.040343916111558
0.03966206335277
0.050955317553038
0.050931796932198
0.05088435756786
0.050811993002572
0.050714163503508
0.050590784372568
0.050441977296195
0.050267874317715
0.050068545640607
0.04984401161626
0.049594270756513
0.049319329986649
0.049019209040951
0.04869395414692
0.04834361899939
0.047968289278505
0.047568044434767
0.047143017948628
0.046693314328268
0.046219141412182
0.045720620544729
0.045198077240381
0.044651613118822
0.044081751061093
0.043488476482633
0.042872666726383
0.042233947203801
0.041573828884861
0.040890868422424
0.040187419910256
0.051997875224979
0.051974053755195
0.051926003970767
0.051852723786028
0.051753678923938
0.051628774314063
0.051478100489784
0.051301744644807
0.051099724922566
0.050872007015871
0.050618530292057
0.050339239860566
0.050034086044059
0.049703044593055
0.04934608870266
0.048963228719788
0.048554453208819
0.04811982196211
0.047659335867268
0.047173141423295
0.046661235318772
0.046123914640065
0.045561112610429
0.044973398302269
0.044360488957244
0.043723462368455
0.043061430251173
0.042376379105611
0.041665643717584
0.040932262809154
0.053279244218919
0.053255213301091
0.053206726299017
0.053132773120065
0.053032807440583
0.052906710143666
0.05275453077208
0.052576301706129
0.052371975659448
0.052141446630713
0.051884574385487
0.051601219999704
0.051291239576696
0.050954512848349
0.050590903525277
0.050200318239223
0.049782620999829
0.049337768027223
0.048865617484306
0.048366225929919
0.047839418301588
0.047285441262119
0.046703998250603
0.046095699487647
0.04545990272199
0.04479791950744
0.044108190872443
0.043393288300726
0.042648994883784
0.041879221850777
0.054755780801613
0.054731693379885
0.054683072823398
0.054608904411973
0.054508625347716
0.054382081763629
0.054229267994731
0.05405014592937
0.053844585669069
0.053612390645987
0.053353319520451
0.053067125843108
0.052753544951514
0.052412332720642
0.052043211801914
0.051645953537047
0.051220260368962
0.050765950750272
0.05028269683358
0.049770430851741
0.0492287543555
0.048657834156522
0.048057078758359
0.047427125345381
0.046766881754864
0.046077914834294
0.045357847817676
0.04460992408676
0.043828064371197
0.043017171114628
0.056387807333466
0.056363897870774
0.056315614573818
0.056241937665241
0.056142281445244
0.056016447258156
0.055864361640743
0.055685901445527
0.055480837349978
0.055248863247943
0.054989614897359
0.054702714239874
0.054387748433746
0.054044320286652
0.053671978181522
0.053270324265343
0.052838859927363
0.0523772280188
0.051884867952739
0.051361547846517
0.050806590037212
0.050220044023229
0.049600954294507
0.048949959002984
0.048265422839387
0.04754916927379
0.046797858552059
0.046015454665744
0.04519371752761
0.044338580143915
0.058138952292232
0.058115525880943
0.058068199000964
0.057995946068829
0.057898150959061
0.057774559746675
0.05762501872546
0.057449305829625
0.057247076888306
0.057017898919855
0.056761264486125
0.056476640858384
0.056163440161857
0.055821082703576
0.055448908753224
0.055046315879216
0.054612563385548
0.05414707779897
0.053649016481419
0.053117938496379
0.052552827529086
0.051953569997051
0.05131877306057
0.050649035851029
0.049942084554862
0.049199977943608
0.048418272413065
0.047601662043474
0.046739469856323
0.045838616797447
0.059975758943649
0.059953181884167
0.059907546976171
0.05983783011967
0.059743382640506
0.059623886967686
0.05947909814015
0.059308682914364
0.059112167687677
0.058888975349806
0.058638435526982
0.058359839498486
0.058052399910751
0.057715327115835
0.057347720969768
0.056948739358261
0.056517358511566
0.056052746295349
0.055553727653988
0.055019603719057
0.054448958010491
0.053841460135311
0.053195204484734
0.052510697625353
0.051784931559051
0.051020154931998
0.05021068824824
0.049361921502789
0.048460492097104
0.047514171253906
0.061867461645395
0.061846145599741
0.061803030933426
0.061737106434991
0.061647692169552
0.061534400697896
0.061396885889557
0.061234692547714
0.061047206515514
0.060833694249119
0.060593306887099
0.060325140088069
0.060028184010353
0.05970141416015
0.059343661232537
0.058953811121245
0.058530518628391
0.058072651104428
0.057578651793995
0.0570475126369
0.056477355692339
0.055867573753255
0.055215672938918
0.054522000026274
0.053782720252194
0.053000201511846
0.052167407788594
0.051290342715929
0.050352741505824
0.049362980102462
0.063785952926389
0.063766341445894
0.063726639467361
0.063665863555486
0.063583307004678
0.063478508685589
0.063351014160207
0.063200238781521
0.063025420249962
0.062825659998942
0.062599920128232
0.062347087674178
0.062065913185023
0.061755115600584
0.061413231362221
0.061038846104598
0.060630259958673
0.060186001134918
0.059704085907083
0.059183145747608
0.058620782773975
0.0580160481069
0.057365787275752
0.056670107960406
0.055924261467544
0.055130638014597
0.054280740445211
0.053381051850537
0.052412226543117
0.05138288426964
0.065705839014868
0.065688390596061
0.065653026295843
0.06559880712894
0.065525006180151
0.065431087882445
0.065316485950034
0.065180482911446
0.065022165497806
0.064840466845944
0.064634155234419
0.064401901904742
0.064142207943426
0.063853522363865
0.063534068977829
0.063182109558967
0.062795562676235
0.062372584097886
0.061910724971755
0.061408207874882
0.060862062741459
0.060270932050366
0.059630934524108
0.058941848446169
0.058197934027346
0.057401481471868
0.056542447569337
0.055627607542937
0.054634401073429
0.053571208513253
0.067604525217394
0.067589697583394
0.067559594733057
0.067513341362467
0.067450199705153
0.067369561672264
0.067270749390368
0.067152914014891
0.067014994072903
0.066855757256542
0.06667377996309
0.066467517598008
0.066235219621785
0.065975059671039
0.06568494082909
0.065362786729017
0.065006115444069
0.064612683548791
0.064179548301475
0.063704480728135
0.06318389624822
0.062615962509607
0.061996015620027
0.061323406380374
0.060591339950794
0.059801859802613
0.05894331749297
0.058022539517219
0.057013668535965
0.055924238244225
0.069462290868581
0.069450524341358
0.069426574225113
0.069389648990058
0.069339010935162
0.069273984651506
0.069193785204797
0.069097438914214
0.068983744803557
0.068851314490504
0.068698541746059
0.068523673952594
0.068324715590958
0.068099568497729
0.067845816873551
0.06756104247628
0.067242357005737
0.066887100179165
0.066491817578703
0.066053793885407
0.065568800841929
0.065034469709137
0.064445312786953
0.063800150454798
0.063091088026789
0.062319754348282
0.061472865925428
0.060557008083824
0.059543003359007
0.05843680658912
0.071262328059627
0.071254031862652
0.071237063751886
0.071210737702243
0.071174329192859
0.071127103014679
0.071068175502894
0.070996459768399
0.070910629983929
0.070809157647024
0.07069027063188
0.070552024205906
0.070392193818405
0.070208422809143
0.069997989432232
0.069758140671115
0.069485588881315
0.069177252752789
0.068829162855927
0.068438092442296
0.067999155915241
0.067509393868392
0.066962472655415
0.066356579476369
0.065682698843304
0.064941860537105
0.064119153340751
0.063220579910236
0.062213684158437
0.061101988204157
0.072990727286869
0.072986266417487
0.072977023568916
0.072962439727182
0.072941817546169
0.072914372290892
0.072879133595466
0.072834917552543
0.072780293618969
0.072713615312883
0.072632968454671
0.072536240007258
0.072421001466555
0.072284660827972
0.072124214729116
0.071936594084949
0.071718132478053
0.071465336208906
0.07117373508928
0.070839580030774
0.070457331955671
0.070023396863908
0.069530594410466
0.068976379047189
0.068350622995002
0.067653562662501
0.066868711410841
0.066001108234791
0.06501513378279
0.063910903793855
0.074636405159997
0.074636091764379
0.074635211250487
0.074633354893746
0.074629867359253
0.074623925551897
0.074614487515002
0.074600292879071
0.074579831257412
0.074551365579545
0.074512869721819
0.074462093534413
0.07439643827892
0.074313109294685
0.074208856717893
0.0740803258172
0.073923505448731
0.073734511972153
0.073508404793233
0.073240917999951
0.072925884622706
0.072559046441631
0.072132399782649
0.071642574945786
0.071078369375324
0.070439024386707
0.069706581835422
0.06888471204137
0.06793484173318
0.066852602565073
0.076190966803518
0.076195054661176
0.076203056707061
0.076214736582214
0.076229495051557
0.076246483674728
0.076264606994171
0.076282552133792
0.076298758078208
0.076311428969854
0.07631846148286
0.076317505200781
0.07630583209447
0.076280486423384
0.076238016837755
0.076174824974066
0.076086601469346
0.07596910970543
0.075816984029458
0.075625463977541
0.075387799044907
0.075099059381464
0.074750465966162
0.074337754179241
0.073848714350887
0.073281390755203
0.072616491158953
0.071855888705045
0.070958388502741
0.069914005799307
0.077648527865914
0.077657206130605
0.077674483601122
0.077700318325579
0.077734181984141
0.077775213251856
0.07782228096255
0.077874045298328
0.077928927142075
0.077985108587479
0.078040449243637
0.078092539923702
0.078138568572833
0.078175465842196
0.078199631840071
0.078207277712907
0.078193853528529
0.078154821812567
0.078084449638692
0.077977524698483
0.077826767915184
0.077626597250866
0.077367517540239
0.077044344275835
0.076643950426029
0.076163038356037
0.075581123615511
0.074897821866219
0.074069687054745
0.073079985159156
0.079005485477358
0.079018881741919
0.079045702393457
0.079086117765993
0.07913968434666
0.079205543951989
0.079282550676999
0.079369361866655
0.07946441023843
0.079565893165205
0.079671679613991
0.079779350543606
0.07988606036591
0.079988676206568
0.080083507491213
0.080166636373106
0.080233339920017
0.080278846334844
0.080297123087606
0.080282573934278
0.08022744869949
0.080125573855273
0.079966768331671
0.079744976698207
0.079446186869805
0.07906581621683
0.078582289483822
0.077992730893126
0.077251488268041
0.076333852461581
0.080260255763427
0.080278448980877
0.080314970779445
0.080370212588015
0.080443824917577
0.080534971397566
0.080642519615806
0.080765153326894
0.08090134479466
0.081049337567783
0.081207054819245
0.081372118733627
0.081541707765658
0.081712679730337
0.081881318358683
0.082043640203904
0.082194827639073
0.082329949604462
0.082442758146822
0.082527361723165
0.082575606838094
0.082580842176974
0.082532189149098
0.082422877412324
0.082237799178573
0.081971456224834
0.081600896685721
0.0811217382089
0.080485329524606
0.07965830709477
0.081412976524264
0.081435999086295
0.081482292454776
0.081552464536485
0.081646259502231
0.081762870507353
0.081901200317414
0.082059997740443
0.082237814177111
0.082432973735948
0.082643495290032
0.08286707838929
0.083100978528896
0.083342101522918
0.083586787730241
0.083831045025617
0.084070051154725
0.084298773266242
0.084510869845913
0.084700222902552
0.084858412196791
0.084978415093531
0.0850487277125
0.085062098239115
0.085001940715454
0.084862411961674
0.084617559138829
0.084264400573186
0.083748691897104
0.083034647329075
0.082465249504498
0.082493031275804
0.082549031650522
0.082634090809915
0.082748053962174
0.08289012174459
0.083059209543581
0.083254159839545
0.08347367201893
0.083716211851028
0.083979932935637
0.084262615989282
0.084561626991742
0.084873971148763
0.085196147373948
0.085524208390747
0.085853442494593
0.086178720299546
0.086493779396746
0.086792216390255
0.087065639986039
0.087306505467298
0.08750317470649
0.087647734957925
0.087722622754313
0.087721702880867
0.087614120628556
0.08739978931067
0.087010742193911
0.086432296511574
0.083420071399665
0.083452296057697
0.083517571350909
0.083617124820265
0.083750971225787
0.083918270975634
0.084117851221958
0.08434856941504
0.08460938219259
0.084899110151631
0.085216068486613
0.085558046064661
0.085922514150219
0.086306607728507
0.086707057787619
0.08712000203965
0.08754098487436
0.087964776492424
0.088385430736607
0.088796047074242
0.089188753208055
0.089554774501661
0.089883579160124
0.090164781097532
0.090383110607277
0.090528455698408
0.090572050804908
0.090506806237051
0.090247812973427
0.089789600785027
0.084282147424074
0.084318247325536
0.08439172465277
0.084504548233054
0.084657019382694
0.084848340416592
0.085077264848403
0.085342310397415
0.085642435432189
0.085977452098982
0.086345947890971
0.086745697912606
0.087174285674368
0.087628990168942
0.088106770012705
0.088603866264855
0.089116171312174
0.089638458925342
0.090165336256117
0.090689458885665
0.091204021431178
0.091698492487141
0.092164869722799
0.092587650754985
0.092958866545845
0.093255152289329
0.093470248684153
0.093564387258193
0.093498668471931
0.093108430992108
0.038737517375432
0.03811868809129
0.037485351608902
0.036838658078286
0.036179691392588
0.03550927126703
0.034828023385224
0.034136519396548
0.033435372355835
0.032725265570078
0.032006940597392
0.031281175244662
0.030548768164744
0.029810532851404
0.029067296764412
0.028319902458853
0.027569208582194
0.026816088191155
0.026061425771424
0.025306114768564
0.02455105653827
0.023797161278956
0.02304535325599
0.022296578643525
0.021551798679034
0.020811782925247
0.020077218217978
0.019348952208267
0.018627889001836
0.017914902576645
0.017210808032955
0.016516367203932
0.015832299655062
0.015159293108146
0.01449800226462
0.013849049846719
0.013213016602018
0.012590447252695
0.011981834839165
0.011387640729235
0.010808261205705
0.010244075333437
0.0096953695363265
0.0091624496933449
0.0086454689727426
0.0081446838896117
0.0076600583595898
0.0071918371146856
0.0067396297079107
0.0063036224747004
0.039006810750758
0.03838106517412
0.037738762942372
0.037082600009844
0.036414320245008
0.035734676612038
0.03504395055727
0.034342420090023
0.033630557583971
0.03290901784702
0.032178554760604
0.031439957604814
0.030694026623243
0.029941573807681
0.029183432613656
0.028420465595086
0.027653565178858
0.026883649529513
0.026111657246889
0.025338543010722
0.02456527184716
0.023792810358404
0.023022109729625
0.022254082148068
0.021489591512191
0.020729713641427
0.019975610976826
0.019228233549616
0.018488438192783
0.017757071832102
0.017034984604262
0.016323017228641
0.015621982974441
0.014932660956015
0.0142557849668
0.01359205041003
0.012942098893981
0.012306537455134
0.011685905001227
0.011080719281994
0.010491401605941
0.0099183881254484
0.0093619594778942
0.0088224986890963
0.008300103126518
0.0077951782481047
0.0073075604253455
0.0068378890769688
0.0063856858559981
0.0059526364021498
0.039512630847214
0.038866447695709
0.038199151534921
0.037516922173896
0.036823116446612
0.036118523335224
0.035402852247391
0.034675903555752
0.033937975949818
0.033189763196708
0.032432121504377
0.031665920559438
0.030892003585376
0.030111204816359
0.029324379311886
0.028532421605218
0.027736266915494
0.026936882110306
0.026135256244723
0.025332394767899
0.024529315793947
0.023727047512194
0.022926629243062
0.022129119495853
0.021335607240492
0.020547142990714
0.019764726748591
0.018989359573228
0.018222020301374
0.017463663999788
0.016715222183643
0.015977602560871
0.015251676265844
0.01453827869245
0.013838193013909
0.013152165687726
0.01248087719346
0.011824982427958
0.011185044838005
0.010561632954627
0.0099551699241623
0.0093661600886111
0.0087948441626286
0.0082417249128861
0.0077067768429048
0.0071906662693822
0.0066929589944998
0.0062149950534641
0.0057559927286212
0.0053202891533098
0.040228560710871
0.039549476095613
0.038842811870341
0.038120288924567
0.037387676889831
0.036645705010118
0.035893142879985
0.035129051257578
0.034353474828668
0.033567170723884
0.032771138271398
0.031966343896402
0.031153664368308
0.03033393402968
0.029508006288535
0.028676788526009
0.027841244056418
0.02700237693624
0.026161218170909
0.025318819873435
0.024476252905066
0.023634604144352
0.022794971676627
0.021958457580242
0.021126156073127
0.020299156279742
0.019478545857132
0.0186653964993
0.017860760637171
0.017065669057451
0.01628112183518
0.015508089882821
0.014747502179152
0.014000255047849
0.013267187954414
0.012549112003357
0.011846759201943
0.011160853261555
0.010491996157697
0.0098408366963605
0.009207810346767
0.0085935333659645
0.0079982028203222
0.0074225133646469
0.006866277849576
0.0063305673129874
0.0058145838305497
0.0053207674705981
0.0048480518089156
0.0044051016050135
0.041139352430237
0.040416848689958
0.039658244013648
0.038882934304032
0.038099886104477
0.037309614840824
0.03650954159655
0.035697718810022
0.034873870248298
0.034038857026041
0.033193873207843
0.032340004320309
0.031478157244801
0.030609153048477
0.029733831540241
0.028853106503469
0.027967967013901
0.02707945292535
0.026188634511867
0.025296605027195
0.024404478519935
0.02351338665015
0.02262447369827
0.021738892255553
0.020857799136039
0.019982352264229
0.019113704771801
0.018252998487617
0.017401355382891
0.01655987639953
0.015729631203231
0.014911662874475
0.014106969955204
0.013316523789202
0.012541232470509
0.011781986044508
0.011039579003139
0.010314821517165
0.0096083638529164
0.0089209589705344
0.0082530590351701
0.0076054282661875
0.006978210913398
0.0063723588633207
0.0057874828015982
0.0052252024539736
0.004684254778209
0.0041685664895996
0.0036766863010906
0.0032230819823453
0.042235539700805
0.041460244324549
0.04063799523769
0.039798217045984
0.038953909251203
0.038105184360379
0.037247671767906
0.036378144197972
0.035495955828137
0.03460213228387
0.033698126592644
0.032785171347418
0.031864202134467
0.030936015357231
0.030001428392627
0.029061358071896
0.028116819339956
0.027168888399057
0.026218674006067
0.025267309013348
0.024315950025379
0.02336577555928
0.022417981845969
0.021473779288143
0.020534387389912
0.019601027640053
0.018674917495457
0.017757266047097
0.016849264982667
0.015952089113385
0.015066882484638
0.014194766864271
0.01333681729294
0.012494088020157
0.011667561975965
0.010858218468045
0.01006692136338
0.0092945813089343
0.0085419022796479
0.0078097626096709
0.0070986314125056
0.0064094557832169
0.005742312688149
0.0050984759328986
0.0044773043141838
0.0038811035784722
0.0033080294430449
0.0027638781918492
0.0022467411800278
0.0017785255413969
0.04351105097955
0.042674423875587
0.041777409621121
0.040862094659015
0.03994639326544
0.03902975958102
0.038105528845147
0.037168908077429
0.036218846575511
0.035256611584588
0.034283986394192
0.033302377188979
0.032312743465561
0.03131584360684
0.030312463279581
0.029303519741675
0.028290054780511
0.027273182150707
0.026254049496555
0.025233829166919
0.024213720321794
0.023194948607955
0.022178761995208
0.021166427049073
0.020159223016537
0.019158435156859
0.018165348471127
0.017181243657363
0.01620738636164
0.015245029695616
0.014295397383044
0.013359696512542
0.012439084866316
0.011534708914667
0.010647635286447
0.0097789443472878
0.008929578283826
0.0081005650379194
0.0072926707429644
0.0065069232335237
0.0057438117462812
0.0050045042260912
0.0042889980732103
0.0035989560154804
0.0029334350771544
0.0022955713015518
0.0016828238992147
0.0011032734863521
0.00055451811477244
6.7732052568408e-05
0.044962537089852
0.044056769664645
0.04307432410885
0.042072904621772
0.041076267957351
0.040082870714141
0.039083180254856
0.038070537113108
0.037043469061435
0.036003581591772
0.034953067397664
0.033893531456849
0.032825948039566
0.031751022062709
0.030669499471952
0.029582297576223
0.028490488077514
0.027395225228752
0.026297696804936
0.025199114817094
0.024100720955616
0.023003788099947
0.021909616307442
0.020819529322193
0.019734868347282
0.018656985716746
0.017587237574568
0.016526979960328
0.015477556995275
0.014440306080228
0.013416536365946
0.012407547487926
0.011414588299782
0.01043890719062
0.0094816633817726
0.0085440520760224
0.0076271045849043
0.006731983772373
0.005859527390447
0.0050109377935369
0.0041867284667967
0.003388327469316
0.0026156411510341
0.001870793524506
0.0011524921818497
0.00046486005064175
-0.00019545044064205
-0.00081763076383374
-0.0014045903116171
-0.0019139328834004
0.046588399919129
0.045606329844701
0.044528142980886
0.043430473020363
0.042343883283969
0.041265391709115
0.04018194828554
0.039084717515404
0.037971814461949
0.036845303193421
0.035707872577841
0.03456134799553
0.033406704890952
0.032244578092055
0.031075667237425
0.029900892149245
0.028721359670104
0.027538268258173
0.026352847625273
0.025166350259757
0.023980061090753
0.02279530143716
0.021613425150737
0.020435815365318
0.019263877950177
0.018099034893661
0.01694271653022
0.015796358813368
0.014661389039627
0.013539233657326
0.012431293568732
0.011338968650504
0.010263606374076
0.0092065675795699
0.0081691149471169
0.0071525715714465
0.0061580693137111
0.0051869245337161
0.00424005829105
0.0033188736890143
0.0024239156853198
0.0015569135382782
0.00071767490404285
-9.1141376597199e-05
-0.00087122292916346
-0.0016172984671376
-0.0023336344486444
-0.0030062245194372
-0.0036384704783243
-0.0041745947347765
0.048387920726797
0.047322985148032
0.046139068779588
0.044935416713225
0.043750376159816
0.042578963337239
0.041403884838526
0.040213822663318
0.039006523800585
0.037784655640147
0.036551494152503
0.035309100882547
0.034058432692815
0.032800036386561
0.03153456160164
0.030262936249687
0.028986309674321
0.027705929738921
0.026423070388709
0.025139025630012
0.023855124804134
0.02257273936181
0.021293279177067
0.020018189284841
0.018748942654035
0.017487033315522
0.016233968489432
0.014991267046831
0.013760444287049
0.012543022247178
0.011340499796484
0.010154383944067
0.0089861299129214
0.0078372207200684
0.0067090332552796
0.0056030329382966
0.0045204664222224
0.003462822284167
0.0024311200710167
0.0014269909485311
0.00045102400065578
-0.00049470709552921
-0.001410493670061
-0.0022930634976644
-0.0031445362152187
-0.0039583261323544
-0.0047397246518691
-0.0054710408779468
-0.0061561261810837
-0.0067234651870408
0.050360527066643
0.049206756881047
0.047907475360084
0.046588586489721
0.045297173158136
0.04402554000548
0.042751353144132
0.041460526499232
0.040150531514573
0.038824811546316
0.037487320765142
0.036140360887071
0.034784843229194
0.033421209118144
0.032050058469379
0.030672337068052
0.02928924623529
0.02790208866021
0.02651218527808
0.025120873375016
0.023729528320365
0.022339573515395
0.02095247692222
0.019569747927887
0.018192930063176
0.016823592366992
0.015463321482105
0.014113721804975
0.012776399898112
0.011452977556653
0.01014505909018
0.008854266406325
0.0075821707551842
0.0063303867061602
0.0051004183489419
0.0038938858317954
0.0027121669637566
0.0015569413488633
0.00042934694057601
-0.00066873018124015
-0.0017366375758238
-0.0027719144004028
-0.0037749421049067
-0.0047417569926861
-0.0056749318857839
-0.0065663912687619
-0.0074225206586915
-0.0082214285772513
-0.0089672863426965
-0.0095703180124085
0.052505168692107
0.051257213333006
0.049833367872543
0.048390580579366
0.046985543967573
0.045606972094478
0.044226635131977
0.042827437932681
0.041406730194121
0.039968929556522
0.038518753598283
0.037058734177547
0.035589701772268
0.034111975986872
0.032626114035239
0.03113309470398
0.029634183086993
0.028130742827369
0.026624144472179
0.02511577070481
0.023607045803499
0.022099448209653
0.020594506492515
0.01909379514819
0.017598928405799
0.016111551589466
0.014633336458191
0.01316597793874
0.011711177226186
0.010270658024263
0.0088461334632031
0.0074393453541018
0.0060519918729626
0.0046858274784354
0.0033424964845779
0.0020237852254466
0.00073122267253337
-0.0005333047324329
-0.0017685139319431
-0.0029722390242363
-0.0041437336418386
-0.0052801083754564
-0.0063818118444629
-0.0074441121759521
-0.0084700488264897
-0.009449893810565
-0.010391200897148
-0.011267366259493
-0.012082650021493
-0.012726269536603
0.054819780186389
0.053472955868768
0.051915918310828
0.050341331219527
0.048816223574266
0.047324646983354
0.045831585832635
0.044316772135736
0.042777662592242
0.041219870184814
0.039648945559961
0.038067620155849
0.036476602378698
0.034876079477177
0.033266580760582
0.031649139034522
0.030025097321016
0.028395886117974
0.026762928119223
0.025127653556423
0.023491538202145
0.021856119509199
0.02022299202891
0.01859380278539
0.016970239883614
0.015354009862828
0.01374686625503
0.012150603589144
0.010567029113608
0.0089979728659147
0.0074452586762682
0.005910748915376
0.0043962744246392
0.002903736057859
0.0014349339061305
-8.171720232923e-06
-0.0014238783923689
-0.002810080901411
-0.0041653169998322
-0.005487122104344
-0.0067746106435656
-0.0080244298769105
-0.0092370488490178
-0.010406892879606
-0.011537446818295
-0.012617140999052
-0.013654766264695
-0.014618446868002
-0.015512507274326
-0.016202199839968
0.057300845078383
0.055851198459618
0.054153085079752
0.052439761900904
0.05078909174589
0.049179181497093
0.047567338343551
0.04593007133658
0.044265261891005
0.042579954034278
0.040880574146635
0.039169998808816
0.037448768096887
0.035716935691086
0.03397503006575
0.032224165218254
0.030465777447772
0.028701370644014
0.026932422770448
0.025160415249767
0.02338687839342
0.021613409343127
0.019841666671784
0.01807336811131
0.01631031598976
0.014554264862583
0.012807037526023
0.011070514147594
0.0093466103271203
0.0076372733779799
0.0059444452767649
0.0042701123486401
0.0026162419614968
0.0009848837478337
-0.00062199686086275
-0.0022022579490078
-0.0037540019933991
-0.0052748972457673
-0.0067632651061457
-0.0082163296571386
-0.0096330082183841
-0.011009458690328
-0.012346099626268
-0.013636453137049
-0.01488440051904
-0.016076370392589
-0.017222405418665
-0.018284709190749
-0.019267389949342
-0.020008212408497
0.059943061539978
0.05838744150434
0.056541320063435
0.054683525717284
0.052902924865081
0.05117017445144
0.049434060156715
0.047667974439197
0.045870636660509
0.044050759568731
0.042215648931163
0.040368244376899
0.038508872303017
0.036637466918307
0.034754595947386
0.032861488176476
0.030959689387787
0.029050781822322
0.027136302411533
0.025217790260354
0.023296837781543
0.021375112095599
0.019454342314957
0.017536309476624
0.015622817765593
0.013715812977299
0.011817194629079
0.0099289071505991
0.0080529456367366
0.0061913645935032
0.0043462280227279
0.0025196578182667
0.00071375856486429
-0.0010692640757019
-0.0028272784138818
-0.0045579498891494
-0.0062591767686701
-0.0079283848959003
-0.0095636535568855
-0.011161880099681
-0.01272172955857
-0.014238850496995
-0.015713520466432
-0.017138305010119
-0.018517377132442
-0.019835001550575
-0.021102395104471
-0.022275376306578
-0.02335737408426
-0.024155608315823
0.062739120411163
0.061075254473865
0.059075372332146
0.057068821663399
0.055155210044093
0.053296015660738
0.05143076318058
0.04953003472775
0.047593900884733
0.045632962593439
0.043655354431834
0.041663971815187
0.039658890346826
0.037639959379137
0.035607841111862
0.033563916582535
0.031509856053942
0.029447325118619
0.027377924893416
0.025303257541968
0.023224987123432
0.021144850589198
0.019064647700959
0.016986235857182
0.014911497316856
0.012842413020201
0.010781002518981
0.0087293215945712
0.0066894390514425
0.0046634993581729
0.0026536716692046
0.00066221771488045
-0.0013086284276908
-0.0032564884898451
-0.0051790808632254
-0.0070738476757281
-0.0089385035259205
-0.0107701844553
-0.012566744533548
-0.014324695602707
-0.016042442394329
-0.017715069161122
-0.019342647413061
-0.020916736626455
-0.022441686491619
-0.023899478940757
-0.025302459790864
-0.026599499997348
-0.027793108500794
-0.028656090776753
0.06567957153577
0.063906160145708
0.061748197334211
0.059590305081427
0.057542033286006
0.055553751195252
0.053555164948315
0.051514593595445
0.049434058931202
0.047326223351174
0.045199933382419
0.043057912983418
0.040899973506137
0.038725943958135
0.03653664869802
0.034333657554416
0.032118776319777
0.029893757320904
0.02766027260051
0.025419999584025
0.0231746816918
0.020926136556502
0.018676238539647
0.016426912961555
0.014180123530272
0.011937921271499
0.009702398964608
0.0074756938051411
0.0052599588157747
0.0030574437625044
0.00087041040440036
-0.0012987445354922
-0.0034476804831018
-0.0055738272963858
-0.0076747877562607
-0.0097477314408153
-0.011790255258726
-0.013799100539541
-0.015772001105407
-0.01770491212528
-0.01959610819309
-0.021439895306222
-0.023236233233263
-0.024975483114771
-0.026662159311641
-0.028275780972433
-0.029829744286629
-0.031265334031514
-0.032583664043068
-0.033518981201918
0.068752744343157
0.066869590824649
0.064550953482664
0.062241093380911
0.060058058770953
0.057939022425424