/*--------------------------------*- C++ -*----------------------------------*\
| =========                 |                                                 |
| \\      /  F ield         | OpenFOAM: The Open Source CFD Toolbox           |
|  \\    /   O peration     | Version:  2112                                  |
|   \\  /    A nd           | Website:  www.openfoam.com                      |
|    \\/     M anipulation  |                                                 |
\*---------------------------------------------------------------------------*/
FoamFile
{
    version     2.0;
    format      ascii;
    arch        "LSB;label=32;scalar=64";
    class       volVectorField;
    location    "5.4";
    object      U;
}
// * * * * * * * * * * * * * * * * * * * * * * * * * * * * * * * * * * * * * //

dimensions      [0 1 -1 0 0 0 0];

internalField   nonuniform List<vector> 
22000
(
(1.0000012098716 -3.2537937983321e-05 0)
(1.0000337602742 -9.9016193097687e-05 0)
(1.000097643105 -0.00016744065525781 0)
(1.000194922889 -0.00023805382212143 0)
(1.0003272049854 -0.00031129459355637 0)
(1.0004960840206 -0.00038804664546729 0)
(1.000703411113 -0.00046909762563186 0)
(1.0009512011389 -0.00055447033551531 0)
(1.0012413137138 -0.00064323021969164 0)
(1.0015751021732 -0.00073385554555951 0)
(1.0019531509108 -0.00082470037840959 0)
(1.0023752825871 -0.00091439710016781 0)
(1.0028406640697 -0.0010018923812607 0)
(1.0033480760133 -0.0010865440520433 0)
(1.003895965816 -0.0011678442247745 0)
(1.0044827257147 -0.0012456592312792 0)
(1.0051065143632 -0.0013196927880043 0)
(1.0057656919 -0.0013902037995611 0)
(1.0064582744003 -0.0014567544828607 0)
(1.0071827949097 -0.0015200639291849 0)
(1.0079370330107 -0.0015790216463714 0)
(1.0087198623863 -0.00163536212877 0)
(1.0095285644526 -0.0016864420236703 0)
(1.0103627718238 -0.0017366151256673 0)
(1.0112189319307 -0.0017795927161804 0)
(1.0120982665987 -0.0018257984076395 0)
(1.0129956661989 -0.0018598113253275 0)
(1.0139151006016 -0.0019059233828648 0)
(1.0148482496049 -0.0019269724443384 0)
(1.0158036676947 -0.0019795909422966 0)
(1.0000005018295 -9.5332135324993e-05 0)
(1.0000324857451 -0.00029028349189474 0)
(1.0000956456714 -0.00049110206153197 0)
(1.0001919416967 -0.00069840372791351 0)
(1.0003230728319 -0.00091346541593829 0)
(1.0004907847881 -0.0011389775697631 0)
(1.0006970515631 -0.0013773767539783 0)
(1.000944003613 -0.0016288085662476 0)
(1.0012335970935 -0.0018905443219445 0)
(1.0015672856778 -0.0021580856057889 0)
(1.0019457162053 -0.0024265512930911 0)
(1.0023688140989 -0.0026918777285565 0)
(1.0028357843393 -0.0029509334356266 0)
(1.0033455440306 -0.0032017977893283 0)
(1.0038965158978 -0.003442953802162 0)
(1.0044873035033 -0.003673983907105 0)
(1.0051159034497 -0.0038940141724362 0)
(1.0057810810643 -0.0041037854531413 0)
(1.0064803897557 -0.0043020221212486 0)
(1.0072132113008 -0.0044907833564714 0)
(1.0079761864172 -0.004666849841955 0)
(1.0087700096724 -0.0048351972408691 0)
(1.0095893794144 -0.0049882251657766 0)
(1.0104378206484 -0.0051384377510925 0)
(1.0113062378291 -0.0052678407104498 0)
(1.0122039749692 -0.0054063498370792 0)
(1.0131145041937 -0.0055099442443091 0)
(1.0140583096652 -0.0056480596431007 0)
(1.015004214813 -0.0057148118977217 0)
(1.0159938805863 -0.0058712919245699 0)
(1.000000528472 -0.00015445473059103 0)
(1.0000329880036 -0.00047042001439 0)
(1.0000969605302 -0.00079601092466309 0)
(1.0001942585686 -0.0011321650688065 0)
(1.0003264457218 -0.0014810200516825 0)
(1.0004952381771 -0.0018471168550047 0)
(1.0007026765327 -0.0022345750905975 0)
(1.0009510205529 -0.0026437253518571 0)
(1.001242338865 -0.0030701664405448 0)
(1.0015782165739 -0.0035065943589623 0)
(1.0019593904852 -0.0039450676240724 0)
(1.0023859609416 -0.0043789792763679 0)
(1.0028572133078 -0.0048032223618702 0)
(1.0033723208577 -0.0052146713788851 0)
(1.0039297005476 -0.0056108222747161 0)
(1.0045283541354 -0.0059910064270031 0)
(1.005166046273 -0.0063537444613968 0)
(1.0058422737784 -0.0067003003069213 0)
(1.0065538383202 -0.0070284701286069 0)
(1.0073016188863 -0.0073417444438452 0)
(1.008080329706 -0.0076345852477753 0)
(1.0088938608251 -0.0079154529815226 0)
(1.0097324444206 -0.0081713373587383 0)
(1.010606440024 -0.0084235048553642 0)
(1.0114970087635 -0.0086412555031755 0)
(1.0124278420899 -0.0088754440776889 0)
(1.0133620007889 -0.0090512370785771 0)
(1.014349523635 -0.0092864662421731 0)
(1.0153175757331 -0.0094016843807606 0)
(1.0163684667979 -0.0096694478142661 0)
(1.0000005395752 -0.00021079210434344 0)
(1.0000332737483 -0.00064185585641782 0)
(1.0000977276396 -0.0010859141038694 0)
(1.0001956185319 -0.0015442691051451 0)
(1.0003284280125 -0.0020200287337672 0)
(1.0004978923467 -0.0025196477668643 0)
(1.0007061471838 -0.003048929423127 0)
(1.0009556004353 -0.0036084177303689 0)
(1.0012484464743 -0.004192159647581 0)
(1.0015864412787 -0.0047902561456124 0)
(1.001970441833 -0.0053919379530491 0)
(1.0024007906173 -0.0059882710124073 0)
(1.0028768774059 -0.0065723210587482 0)
(1.00339823643 -0.0071398761212769 0)
(1.0039632729621 -0.0076874838873839 0)
(1.0045715644688 -0.0082142915446515 0)
(1.0052205465181 -0.0087181698328418 0)
(1.0059107759076 -0.009200987865512 0)
(1.0066379821446 -0.0096594656840894 0)
(1.0074052057741 -0.010098706956757 0)
(1.0082044125104 -0.010510509410124 0)
(1.0090440849495 -0.010907264234762 0)
(1.0099080930046 -0.011269774811844 0)
(1.0108165667696 -0.011629132965446 0)
(1.0117368387534 -0.011940192475858 0)
(1.0127129856357 -0.01227719196035 0)
(1.0136792593303 -0.012530664897103 0)
(1.0147274054555 -0.012872277473661 0)
(1.015726202932 -0.013040844339951 0)
(1.0168628486945 -0.013432030014529 0)
(1.0000005507012 -0.00026428984723248 0)
(1.0000334078698 -0.00080445984719381 0)
(1.000098042884 -0.0013605864995184 0)
(1.0001960871677 -0.0019343119572818 0)
(1.000328939871 -0.0025298305923503 0)
(1.0004983508326 -0.0031556517730126 0)
(1.0007065462095 -0.0038193526299199 0)
(1.000956097675 -0.0045217794404644 0)
(1.0012493486057 -0.0052555728473591 0)
(1.0015882755646 -0.0060084555286383 0)
(1.0019738953941 -0.0067670600872333 0)
(1.0024068714491 -0.0075203415305833 0)
(1.0028867345807 -0.0082596812084241 0)
(1.00341349597 -0.0089799016912421 0)
(1.0039855542599 -0.0096766301303134 0)
(1.0046032456545 -0.010348905885644 0)
(1.0052635920441 -0.010993885699261 0)
(1.0059685384423 -0.01161415614346 0)
(1.0067124478365 -0.012205167267509 0)
(1.0075011714755 -0.012773883832797 0)
(1.0083231638877 -0.013308976799438 0)
(1.0091928308281 -0.01382737072801 0)
(1.010085929012 -0.014302650657973 0)
(1.0110350865525 -0.014777183148304 0)
(1.011990090635 -0.015189082416455 0)
(1.0130208732673 -0.015639289441421 0)
(1.0140254023368 -0.015978666173191 0)
(1.015147807977 -0.016440004058893 0)
(1.0161839655058 -0.016669618137903 0)
(1.0174265409871 -0.017201704222414 0)
(1.0000005615476 -0.00031483155022594 0)
(1.0000333426152 -0.00095785002296072 0)
(1.0000977381219 -0.001619355377421 0)
(1.0001952683005 -0.0023013144012282 0)
(1.0003272264294 -0.0030091492492477 0)
(1.0004953667794 -0.0037535902838359 0)
(1.0007020095549 -0.0045440929192509 0)
(1.0009499100198 -0.0053819007496311 0)
(1.0012415790484 -0.006258400285127 0)
(1.0015792529378 -0.0071591629110264 0)
(1.0019641391705 -0.0080684643001033 0)
(1.0023972956177 -0.0089733793278602 0)
(1.0028784311893 -0.0098637570875231 0)
(1.0034081506551 -0.010733590765516 0)
(1.0039848570614 -0.011577616092115 0)
(1.0046098293497 -0.012394859685795 0)
(1.0052796046839 -0.013181692443808 0)
(1.005997840373 -0.013941562203621 0)
(1.0067572654984 -0.014668427347102 0)
(1.0075671669153 -0.015371422381186 0)
(1.0084117876103 -0.016035550324082 0)
(1.0093127067807 -0.016683002866263 0)
(1.0102359784652 -0.017278928501481 0)
(1.011229221792 -0.017878704646662 0)
(1.0122213776839 -0.018401007285254 0)
(1.013313066809 -0.018977401248517 0)
(1.0143595453104 -0.019413182841395 0)
(1.0155663751805 -0.020010770313715 0)
(1.0166446153586 -0.020311491575316 0)
(1.0180090118138 -0.021005804018644 0)
(1.0000005704217 -0.00036224771820145 0)
(1.0000329927299 -0.0011014758699953 0)
(1.0000965644029 -0.00186124752818 0)
(1.0001926568308 -0.0026438393438657 0)
(1.0003224288405 -0.0034560494749559 0)
(1.0004876290528 -0.0043110052118731 0)
(1.0006906680873 -0.0052201537210879 0)
(1.0009344929565 -0.0061852425348648 0)
(1.0012217903357 -0.0071965730713561 0)
(1.0015550874648 -0.0082378141780958 0)
(1.0019358056841 -0.0092911471945945 0)
(1.0023654636985 -0.010342017520777 0)
(1.0028439828038 -0.011378907399902 0)
(1.0033726753197 -0.012395132968497 0)
(1.0039499635017 -0.013384573753045 0)
(1.0045782499152 -0.014346356968196 0)
(1.005253527354 -0.015275993992425 0)
(1.0059814804222 -0.016177963121761 0)
(1.0067529666392 -0.017044493152261 0)
(1.0075813040454 -0.017887245153596 0)
(1.0084459014594 -0.018686959436757 0)
(1.0093766674302 -0.019471930789152 0)
(1.0103285646537 -0.020197519697648 0)
(1.0113664192244 -0.020934062862944 0)
(1.0123955294706 -0.02157782590899 0)
(1.0135512852733 -0.022295320542558 0)
(1.0146410555587 -0.022839850346869 0)
(1.0159389715001 -0.023592662325941 0)
(1.017062394252 -0.023976684172064 0)
(1.0185601377931 -0.024857489336806 0)
(1.0000005759682 -0.00040631115750083 0)
(1.0000322837935 -0.0012346106556787 0)
(1.0000943046569 -0.002084988716039 0)
(1.0001878177207 -0.002960017057478 0)
(1.0003138122103 -0.0038680211164279 0)
(1.0004740125349 -0.0048247047120592 0)
(1.0006709075412 -0.0058436245152533 0)
(1.0009076312984 -0.006927146404141 0)
(1.0011870413674 -0.0080646693739709 0)
(1.0015119756223 -0.009238227142256 0)
(1.0018840910082 -0.010428189967443 0)
(1.0023054294276 -0.011618644030465 0)
(1.0027761564463 -0.012796886334435 0)
(1.003298395937 -0.013955721870279 0)
(1.0038706080442 -0.015088219342035 0)
(1.0044964896896 -0.0161937328135 0)
(1.0051714476363 -0.017266850420933 0)
(1.0059034865997 -0.018313264099593 0)
(1.0066813950813 -0.01932324223515 0)
(1.0075230654448 -0.020311355137557 0)
(1.0084025417069 -0.021253469148654 0)
(1.0093590832018 -0.02218488725119 0)
(1.0103354114639 -0.023049761649305 0)
(1.0114154136211 -0.023935469091654 0)
(1.0124785620073 -0.02471276141351 0)
(1.0136981772004 -0.025587599267371 0)
(1.0148300612394 -0.026254718849743 0)
(1.0162218212276 -0.027183532035897 0)
(1.0173917516616 -0.027665147595308 0)
(1.0190294455793 -0.028758904568398 0)
(1.000000577504 -0.00044676639212976 0)
(1.000031156975 -0.0013564481967525 0)
(1.0000907851099 -0.0022891780276903 0)
(1.0001804010717 -0.0032478069167209 0)
(1.0003007837356 -0.0042423355860347 0)
(1.0004536054313 -0.0052912170628129 0)
(1.0006414129772 -0.0064102326172199 0)
(1.0008675112885 -0.0076024840547615 0)
(1.0011349170643 -0.0088566641934393 0)
(1.0014467831496 -0.010153450927999 0)
(1.0018050171854 -0.011471707823315 0)
(1.0022122289631 -0.01279444194354 0)
(1.0026688689897 -0.014107969889145 0)
(1.0031779575144 -0.015404756331593 0)
(1.0037380263539 -0.0166771289825 0)
(1.0043541948182 -0.017924791340716 0)
(1.0050212863786 -0.019141382481701 0)
(1.005749840753 -0.020333966058193 0)
(1.0065264847416 -0.021490691286301 0)
(1.0073740822845 -0.022629362700628 0)
(1.0082609817077 -0.023720454138786 0)
(1.0092365637404 -0.02480714433747 0)
(1.0102305167284 -0.025820998627853 0)
(1.0113471635618 -0.026868545387346 0)
(1.0124387216519 -0.027791916915977 0)
(1.0137184735438 -0.028840995914736 0)
(1.014888741339 -0.029645640711556 0)
(1.0163728907232 -0.030772169700393 0)
(1.0175887433649 -0.031367575506456 0)
(1.0193675240007 -0.032701864504173 0)
(1.0000005740218 -0.00048336062932055 0)
(1.0000295681655 -0.0014661983858764 0)
(1.0000858774765 -0.002472452228338 0)
(1.0001701508085 -0.0035052346857253 0)
(1.0002829131947 -0.0045763588417561 0)
(1.0004257495693 -0.005707182585097 0)
(1.0006012362152 -0.0069158155059821 0)
(1.0008128198524 -0.0082062119163466 0)
(1.0010636577463 -0.0095665667498149 0)
(1.0013572028808 -0.010976491752045 0)
(1.0016956303799 -0.012413669056115 0)
(1.0020821304479 -0.013860307395036 0)
(1.0025174974089 -0.015301974524856 0)
(1.0030056696344 -0.016730952985304 0)
(1.0035453605138 -0.018138944377147 0)
(1.004143108673 -0.019526089847075 0)
(1.0047933369814 -0.020885138468326 0)
(1.0055090412911 -0.022224579877205 0)
(1.0062750039945 -0.023530488794221 0)
(1.0071188721539 -0.024823957292566 0)
(1.008003729247 -0.026069979520808 0)
(1.0089889082975 -0.027319988534309 0)
(1.0099913313722 -0.028492154326372 0)
(1.0111360219435 -0.029713829459639 0)
(1.0122476757539 -0.030795762985527 0)
(1.013580250841 -0.032035999069901 0)
(1.0147825851164 -0.032993779478982 0)
(1.0163531874857 -0.034339841900733 0)
(1.0176123559833 -0.035066983844016 0)
(1.0195276011622 -0.036669479517894 0)
(1.0000005649852 -0.00051586830880948 0)
(1.0000274904454 -0.0015631640497558 0)
(1.0000795040777 -0.002633617387234 0)
(1.0001569145798 -0.0037305811291545 0)
(1.0002599487958 -0.0048678010768076 0)
(1.0003900639359 -0.0060696717516298 0)
(1.0005498296242 -0.0073567157981304 0)
(1.0007427927275 -0.0087338522196758 0)
(1.0009722254363 -0.010188989818 0)
(1.0012418457735 -0.011700975242104 0)
(1.0015541157576 -0.013246642014573 0)
(1.0019127771511 -0.014807690277004 0)
(1.0023190639833 -0.016369180138649 0)
(1.0027777571516 -0.017923366535772 0)
(1.0032879773244 -0.019461470795374 0)
(1.003857455316 -0.020984123950166 0)
(1.0044807194395 -0.022483346017869 0)
(1.0051726119447 -0.023968953660336 0)
(1.0059171647777 -0.025425325765187 0)
(1.0067454120284 -0.026876325511264 0)
(1.0076173413098 -0.028282428583341 0)
(1.0085996230063 -0.029702091654975 0)
(1.0095998528915 -0.031041622941562 0)
(1.0107602663377 -0.032448125474868 0)
(1.0118816293191 -0.033700829153973 0)
(1.0132560012438 -0.035148662275273 0)
(1.0144810318298 -0.036274718703683 0)
(1.0161278286329 -0.03786157440592 0)
(1.0174255779254 -0.03874028733381 0)
(1.0194661483154 -0.040637186151539 0)
(1.0000005497017 -0.00054411031950036 0)
(1.0000249141992 -0.0016468001652988 0)
(1.0000716407693 -0.0027717507419963 0)
(1.0001406498278 -0.0039225293272926 0)
(1.0002318264868 -0.0051149132003933 0)
(1.0003464571478 -0.0063764352871395 0)
(1.0004870609579 -0.0077300925035313 0)
(1.0006572358732 -0.0091818717744833 0)
(1.0008603296483 -0.010719604783438 0)
(1.0011002853358 -0.012321680453376 0)
(1.0013798458093 -0.013964413297223 0)
(1.0017032827989 -0.015629295758508 0)
(1.0020723093721 -0.017301111473206 0)
(1.0024925273257 -0.018972264990493 0)
(1.0029635501498 -0.020633620418261 0)
(1.0034942600287 -0.022286406426676 0)
(1.0040794326846 -0.023921987585173 0)
(1.0047356805375 -0.025551609641366 0)
(1.0054465440417 -0.027158006445091 0)
(1.006246172087 -0.028767869432492 0)
(1.007092173806 -0.030337367289459 0)
(1.008057454959 -0.031931596412193 0)
(1.0090425552617 -0.033446159253799 0)
(1.0102034587987 -0.035046033057105 0)
(1.0113225562344 -0.036481832661113 0)
(1.0127229597171 -0.038150800117904 0)
(1.0139599329558 -0.039460345064128 0)
(1.0156677241063 -0.041308554147623 0)
(1.016996747007 -0.042358712310174 0)
(1.0191456425725 -0.044572998229346 0)
(1.0000005279312 -0.00056796745413465 0)
(1.0000218473234 -0.0017167553046529 0)
(1.0000623144844 -0.0028862712057382 0)
(1.0001214182629 -0.0040802656518911 0)
(1.000198661573 -0.0053166215692862 0)
(1.0002951160831 -0.0066260777256966 0)
(1.00041320022 -0.0080341399126321 0)
(1.0005565076857 -0.0095479519231527 0)
(1.0007284102444 -0.011155471378971 0)
(1.0009330309999 -0.012834932482061 0)
(1.0011733652536 -0.014562455928145 0)
(1.0014541935259 -0.016319622205631 0)
(1.0017777051596 -0.018091168015472 0)
(1.0021503191621 -0.019869819877193 0)
(1.0025721544581 -0.021646218429164 0)
(1.003053257539 -0.023422285553245 0)
(1.0035886682893 -0.025188833268504 0)
(1.0041968111929 -0.026958618444325 0)
(1.0048607553173 -0.028712798368712 0)
(1.0056178249048 -0.030481047426685 0)
(1.006423365508 -0.032215167978236 0)
(1.0073563158475 -0.033987242542406 0)
(1.0083110512701 -0.035682013214857 0)
(1.0094555442926 -0.037482465609832 0)
(1.0105576881775 -0.039111594675624 0)
(1.0119652539523 -0.041012582167721 0)
(1.0132013726553 -0.042521469787241 0)
(1.0149497034827 -0.044647539851854 0)
(1.0163007000738 -0.045889184849955 0)
(1.0185344972952 -0.048441456772899 0)
(1.0000004992273 -0.00058738862096146 0)
(1.0000183139605 -0.0017728959533363 0)
(1.000051601844 -0.002976981454428 0)
(1.0000993806709 -0.0042035398214801 0)
(1.0001607353866 -0.0054726059994125 0)
(1.0002364814903 -0.0068181559474829 0)
(1.0003288843784 -0.008268211613074 0)
(1.0004414721784 -0.0098311456745497 0)
(1.0005775802122 -0.011495234260825 0)
(1.0007414576974 -0.013238847209992 0)
(1.000936310796 -0.015038226312689 0)
(1.0011673954453 -0.016875321125211 0)
(1.0014373544938 -0.018735045505158 0)
(1.001753403732 -0.020610609892136 0)
(1.0021161586931 -0.022492566385713 0)
(1.0025368118008 -0.024383626691441 0)
(1.0030106869384 -0.02627414512472 0)
(1.0035579724051 -0.028178509416847 0)
(1.0041613800737 -0.030076293735838 0)
(1.0048612296883 -0.032000497834665 0)
(1.0056110004593 -0.033898161665385 0)
(1.0064950954994 -0.035849394228398 0)
(1.007402786171 -0.037726769633998 0)
(1.008512500834 -0.03973332499414 0)
(1.009580434661 -0.041562806105646 0)
(1.0109744712032 -0.043704967682778 0)
(1.0121939615571 -0.045427117304127 0)
(1.0139584423416 -0.047843237936629 0)
(1.0153201680361 -0.049297658596121 0)
(1.0176091473333 -0.052203562041038 0)
(1.000000463044 -0.00060239471688364 0)
(1.0000143523327 -0.0018153141793915 0)
(1.0000396201746 -0.0030440790314976 0)
(1.0000747836535 -0.0042926799603902 0)
(1.000118476699 -0.0055833246947625 0)
(1.0001712182882 -0.0069532186161189 0)
(1.0002350687888 -0.0084328753977602 0)
(1.0003134277961 -0.010031948957972 0)
(1.0004095297009 -0.011739212668818 0)
(1.0005276879466 -0.013533445923658 0)
(1.0006712679758 -0.015391309957351 0)
(1.0008459518731 -0.017295385559734 0)
(1.0010548005651 -0.019230974355214 0)
(1.0013057779382 -0.021191921892805 0)
(1.0015999836172 -0.023168814529604 0)
(1.0019496817604 -0.025165261450855 0)
(1.0023505318888 -0.027171216918582 0)
(1.0028243215732 -0.029202882982511 0)
(1.003353621554 -0.031238151772824 0)
(1.0039813710049 -0.033313798615662 0)
(1.004659711963 -0.035371677511716 0)
(1.0054778041361 -0.03750082278375 0)
(1.0063208182556 -0.039560858112093 0)
(1.0073763020953 -0.041776067582292 0)
(1.0083910658655 -0.043810260630841 0)
(1.0097490718086 -0.046200057810428 0)
(1.0109338697707 -0.048146350909104 0)
(1.0126867970832 -0.050860922471794 0)
(1.0140459802962 -0.052549614307173 0)
(1.0163547869022 -0.055817876442953 0)
(1.0000004234831 -0.00061307037913224 0)
(1.0000100071227 -0.0018443318679985 0)
(1.0000265199825 -0.0030881400244381 0)
(1.0000479459779 -0.0043485517695039 0)
(1.0000724354359 -0.0056499496220647 0)
(1.000100180583 -0.0070327232720855 0)
(1.0001329835229 -0.0085298272053777 0)
(1.0001740474629 -0.010152226519004 0)
(1.0002264390413 -0.011889347671441 0)
(1.0002944696251 -0.013720627989462 0)
(1.0003816079503 -0.015623421840178 0)
(1.0004938989584 -0.017581181381644 0)
(1.0006347783272 -0.019579786492847 0)
(1.0008128812417 -0.021613860437653 0)
(1.0010297756804 -0.023674125430728 0)
(1.0012986778836 -0.025765204619415 0)
(1.0016156377749 -0.027876684475523 0)
(1.0020038267301 -0.030026763816923 0)
(1.0024458691079 -0.032191599353604 0)
(1.0029869379798 -0.034412031022686 0)
(1.0035782892961 -0.036624663230938 0)
(1.0043130984633 -0.038927752888548 0)
(1.0050735850979 -0.041168062703646 0)
(1.0060544339235 -0.043591313182126 0)
(1.0069966512686 -0.045831813294138 0)
(1.0082940594566 -0.048472015237411 0)
(1.0094250858501 -0.050650902882511 0)
(1.0111357225754 -0.053667179142761 0)
(1.012477230956 -0.055610859785248 0)
(1.0147657593986 -0.059242775468977 0)
(1.0000003738365 -0.00061957827118814 0)
(1.0000053470267 -0.0018604296099485 0)
(1.0000124828785 -0.003110071891275 0)
(1.0000192099464 -0.0043725666907415 0)
(1.0000232120437 -0.0056743957907772 0)
(1.000024311098 -0.0070590592886013 0)
(1.0000239997741 -0.0085618799786567 0)
(1.0000252206125 -0.010195152353619 0)
(1.000030804101 -0.011949098999437 0)
(1.000044985095 -0.013804041043835 0)
(1.0000712740874 -0.015738269719863 0)
(1.0001160026865 -0.017736319864402 0)
(1.0001829315141 -0.01978481198563 0)
(1.000281270366 -0.02187927324982 0)
(1.0004130292012 -0.02401064638088 0)
(1.0005922356504 -0.026184668780735 0)
(1.0008153580089 -0.02839060609582 0)
(1.0011067275312 -0.030648764770569 0)
(1.0014491713279 -0.032933632959182 0)
(1.0018896698083 -0.035290184814252 0)
(1.002379127925 -0.037650031863837 0)
(1.0030135941594 -0.040120496215487 0)
(1.0036742627711 -0.042536238934247 0)
(1.0045594201308 -0.045163503880708 0)
(1.0054102170392 -0.04760957178813 0)
(1.0066207392511 -0.050498068248715 0)
(1.0076790554579 -0.052916509817512 0)
(1.0093138243345 -0.056231396168606 0)
(1.010621604775 -0.058449344939852 0)
(1.012846492702 -0.06243881504418 0)
(1.0000003198065 -0.00062211824952145 0)
(1.0000004222375 -0.0018643296750043 0)
(0.99999768503224 -0.0031111318089517 0)
(0.99998898455821 -0.0043665261464848 0)
(0.99997149500551 -0.0056590783336548 0)
(0.99994465748301 -0.0070352840708761 0)
(0.9999096177448 -0.0085327255322198 0)
(0.99986899530473 -0.010165011989857 0)
(0.99982532006369 -0.011923274986076 0)
(0.99978267581608 -0.013788914530182 0)
(0.99974455076973 -0.015741376560109 0)
(0.99971747845574 -0.017766462921029 0)
(0.99970548413458 -0.019851678917684 0)
(0.99971824442187 -0.021993553724543 0)
(0.99975816468992 -0.024183334428632 0)
(0.99983993615333 -0.026427925731215 0)
(0.99996044330283 -0.028716358283401 0)
(1.0001449368398 -0.031071060759452 0)
(1.0003765990319 -0.033465027208973 0)
(1.0007036671629 -0.035947260855956 0)
(1.0010774355077 -0.038444885898015 0)
(1.0015952041039 -0.041073651459539 0)
(1.0021397378488 -0.043657872971208 0)
(1.002908366615 -0.0464812494981 0)
(1.003649381716 -0.049130672765847 0)
(1.0047464769119 -0.052259357145993 0)
(1.0057129197994 -0.054923256446164 0)
(1.0072373876961 -0.0585277558696 0)
(1.0084939814448 -0.061036424119061 0)
(1.0106113288599 -0.065370313069987 0)
(1.0000002613459 -0.00062095061407194 0)
(0.99999530562455 -0.0018568392516701 0)
(0.99998233447223 -0.0030927651153421 0)
(0.99995766241889 -0.004332620566576 0)
(0.99991797330402 -0.0056069529036711 0)
(0.99986230171531 -0.0069651134089532 0)
(0.99979140198527 -0.0084468275243812 0)
(0.99970750963515 -0.010066994622808 0)
(0.99961279729781 -0.011817752674178 0)
(0.99951112484267 -0.01368174182307 0)
(0.99940589887602 -0.015639749943816 0)
(0.99930376538947 -0.017678987628208 0)
(0.99920895207536 -0.019787974162997 0)
(0.99913148294127 -0.021964299497268 0)
(0.99907410573564 -0.02419961158264 0)
(0.9990520091015 -0.02650197938166 0)
(0.99906249044753 -0.02886032540477 0)
(0.99913142736233 -0.031299126781875 0)
(0.99924255915907 -0.033790134497833 0)
(0.9994446725646 -0.03638613274973 0)
(0.99969039182696 -0.039010482258718 0)
(1.0000763027746 -0.041786219290864 0)
(1.000489690945 -0.044530120588678 0)
(1.0011219705462 -0.047538128228695 0)
(1.0017356809614 -0.050386872373249 0)
(1.002693437046 -0.053742859333679 0)
(1.0035488166832 -0.056655018444523 0)
(1.0049290226736 -0.060535512430694 0)
(1.0061149876886 -0.063348591355698 0)
(1.0080820154601 -0.068005805856877 0)
(1.0000001986578 -0.00061636244184205 0)
(0.99999005531279 -0.001838892259752 0)
(0.99996661230008 -0.0030566244118324 0)
(0.99992563174734 -0.0042732834645405 0)
(0.99986332191381 -0.0055212986578067 0)
(0.99977829450635 -0.0068527097713108 0)
(0.99967087764034 -0.0083092480160715 0)
(0.9995428618227 -0.0099070463367792 0)
(0.99939601278346 -0.011639326950345 0)
(0.99923388822724 -0.013490099717489 0)
(0.99905976873222 -0.015441664714639 0)
(0.99888030910884 -0.017482733169798 0)
(0.99869989319241 -0.019602965680359 0)
(0.99852874076265 -0.021801010909904 0)
(0.99836991635148 -0.024069049388716 0)
(0.99823888999266 -0.02641622005371 0)
(0.99813341309663 -0.028831544414188 0)
(0.99807962551261 -0.031341342637244 0)
(0.99806206756891 -0.033916499762224 0)
(0.99812931959691 -0.036613167515209 0)
(0.99823620868621 -0.039351846988315 0)
(0.99847683437496 -0.042261453339058 0)
(0.99874546771001 -0.04515437929883 0)
(0.99922344514889 -0.048333186775636 0)
(0.99969351239076 -0.051374355136135 0)
(1.0004876962425 -0.054942204688108 0)
(1.0012132357686 -0.058101031357951 0)
(1.0024165839505 -0.062239098956518 0)
(1.00351082766 -0.065367486847444 0)
(1.005285721782 -0.070318658847053 0)
(1.0000001327892 -0.00060866088902424 0)
(0.99998472151515 -0.0018114675607646 0)
(0.99995067268202 -0.0030044379715617 0)
(0.99989322196603 -0.0041910766617192 0)
(0.99980813426025 -0.0054055677483357 0)
(0.9996935804746 -0.0067024571534089 0)
(0.99954944453475 -0.0081253600109284 0)
(0.99937701099318 -0.0096915607633585 0)
(0.99917759087995 -0.011395411480932 0)
(0.99895434240336 -0.013222375528183 0)
(0.99871041330055 -0.01515642132466 0)
(0.99845233402582 -0.017187792970632 0)
(0.99818465096146 -0.01930743874783 0)
(0.99791755062343 -0.021514976552967 0)
(0.99765448909091 -0.023803334469551 0)
(0.99741086014104 -0.026182457926976 0)
(0.99718506714491 -0.028641852198828 0)
(0.9970029470066 -0.031209171189337 0)
(0.99685023134763 -0.033855129007502 0)
(0.99677446995228 -0.036638447404782 0)
(0.99673337008218 -0.039477958285465 0)
(0.9968173544696 -0.042507074104339 0)
(0.9969289983921 -0.045536117911022 0)
(0.99723708069815 -0.048871092941818 0)
(0.99754856732129 -0.052093510385044 0)
(0.99815752252659 -0.055857944991728 0)
(0.99873588053579 -0.059256220828667 0)
(0.99973242642387 -0.063631418611823 0)
(1.0007137878182 -0.067079941682021 0)
(1.0022557613981 -0.07228994361481 0)
(1.0000000631796 -0.00059816283551494 0)
(0.99997934625855 -0.0017755738111624 0)
(0.99993464857379 -0.0029379802892266 0)
(0.99986073777893 -0.0040886073111107 0)
(0.99975297180698 -0.0052632323797865 0)
(0.99960901664505 -0.0065186867361746 0)
(0.99942831718285 -0.0079003757798894 0)
(0.99921164169702 -0.009426703903162 0)
(0.99895981667947 -0.01109322331726 0)
(0.99867546517872 -0.012886876814087 0)
(0.99836163164476 -0.014793402956312 0)
(0.99802453675883 -0.016804542823522 0)
(0.99766898173617 -0.018912705605098 0)
(0.99730475918961 -0.021118284860957 0)
(0.9969359986223 -0.023415297236911 0)
(0.99657737846017 -0.025813993788466 0)
(0.99622857680141 -0.028305082326809 0)
(0.99591399195628 -0.030916476180469 0)
(0.99562162387102 -0.033620141540382 0)
(0.99539635043349 -0.036475550561433 0)
(0.99520016069726 -0.039402010186641 0)
(0.99511813092514 -0.042535453138091 0)
(0.99506228280722 -0.045685340661253 0)
(0.99518737210349 -0.049162187849251 0)
(0.99532640112547 -0.052548143489546 0)
(0.99573165269691 -0.056497173663366 0)
(0.99614676672508 -0.06011705195866 0)
(0.99691090071599 -0.064715584535255 0)
(0.99776095220445 -0.068473751868008 0)
(0.9990318743839 -0.073911838721636 0)
(0.99999998471522 -0.00058522383591222 0)
(0.99997398162948 -0.0017323031282456 0)
(0.9999187056044 -0.0028591451116211 0)
(0.99982856071412 -0.0039686337488783 0)
(0.99969855032863 -0.0050979366931779 0)
(0.99952570209814 -0.0063059158954728 0)
(0.99930893086592 -0.0076394928046277 0)
(0.99904847931522 -0.0091180998258484 0)
(0.99874475576947 -0.010738815462994 0)
(0.99839980297558 -0.012490194255034 0)
(0.99801660357517 -0.014359758852805 0)
(0.99760082136195 -0.016340631841706 0)
(0.99715765252481 -0.018426849139627 0)
(0.99669604464835 -0.020619327749406 0)
(0.99622125523911 -0.022913592064856 0)
(0.99574629678011 -0.02531948569522 0)
(0.99527331391991 -0.027829977665483 0)
(0.99482322950022 -0.030471503941695 0)
(0.99438889063047 -0.033219878933305 0)
(0.99400867095082 -0.036131737505323 0)
(0.99365342270595 -0.039131678374045 0)
(0.99339713081166 -0.042352828367482 0)
(0.99316697709612 -0.04560807870286 0)
(0.99309805875501 -0.049212101561867 0)
(0.99305271772902 -0.052738959611278 0)
(0.99324023767824 -0.056865389095496 0)
(0.99347411925988 -0.060672384447972 0)
(0.99398819892604 -0.065501582060369 0)
(0.99469008390761 -0.069524117736214 0)
(0.99565365310401 -0.075196852864089 0)
(0.99999989367104 -0.00057039638630405 0)
(0.99996873688691 -0.0016832240199159 0)
(0.99990308043768 -0.0027703284435517 0)
(0.99979713962118 -0.0038344158379561 0)
(0.99964559842723 -0.0049137703950985 0)
(0.99944484907656 -0.0060692460215961 0)
(0.99919323511647 -0.00734903059825 0)
(0.99889004036082 -0.0087726089928544 0)
(0.99853509841856 -0.010338857541824 0)
(0.99813022607019 -0.012038338931961 0)
(0.9976785364217 -0.013860559801482 0)
(0.99718492804301 -0.015800012969502 0)
(0.99665498955314 -0.017852429287156 0)
(0.99609653311862 -0.020019109557692 0)
(0.99551624270618 -0.022297500688623 0)
(0.99492470883913 -0.024696449902344 0)
(0.99432761524982 -0.027212256023846 0)
(0.99374020319742 -0.029867999683246 0)
(0.9931633680663 -0.032646649229116 0)
(0.99262346336739 -0.035596932581972 0)
(0.99210837071032 -0.038657432001202 0)
(0.99166915630583 -0.04194668304016 0)
(0.99126363081433 -0.045297638702997 0)
(0.99098906925373 -0.049010850970661 0)
(0.99075352106225 -0.052667452015863 0)
(0.99071339078629 -0.056966933364296 0)
(0.9907434841367 -0.060925165180517 0)
(0.99100491350787 -0.066037898578232 0)
(0.99152745435989 -0.070201640762297 0)
(0.99217163690759 -0.076340530265412 0)
(0.99999978408551 -0.00055495292192527 0)
(0.99996358467004 -0.0016323257109166 0)
(0.99988784609956 -0.0026785239241925 0)
(0.99976654884606 -0.0036957769429755 0)
(0.99959399654986 -0.0047233847776562 0)
(0.99936588943202 -0.005824260685597 0)
(0.99908103773519 -0.0070495711222857 0)
(0.99873744125218 -0.0084184079249731 0)
(0.99833309960524 -0.0099305145467146 0)
(0.99786984014079 -0.011577563116804 0)
(0.99735117397537 -0.013351117065395 0)
(0.99678146877226 -0.015247542393667 0)
(0.99616649278709 -0.01726426312822 0)
(0.99551296954418 -0.01940301889428 0)
(0.99482861713418 -0.021663625625122 0)
(0.99412195190038 -0.024053845044139 0)