/*--------------------------------*- C++ -*----------------------------------*\
| =========                 |                                                 |
| \\      /  F ield         | OpenFOAM: The Open Source CFD Toolbox           |
|  \\    /   O peration     | Version:  2112                                  |
|   \\  /    A nd           | Website:  www.openfoam.com                      |
|    \\/     M anipulation  |                                                 |
\*---------------------------------------------------------------------------*/
FoamFile
{
    version     2.0;
    format      ascii;
    arch        "LSB;label=32;scalar=64";
    class       volScalarField;
    location    "19.9";
    object      p;
}
// * * * * * * * * * * * * * * * * * * * * * * * * * * * * * * * * * * * * * //

dimensions      [0 2 -2 0 0 0 0];

internalField   nonuniform List<scalar> 
22000
(
0.014538020725056
0.014516487648891
0.01447196709447
0.014403345022198
0.014310123596546
0.014192332716529
0.014050273240172
0.013884288006147
0.013694661187487
0.013481627065204
0.013245414116486
0.012986283269199
0.012704538129758
0.012400526008343
0.012074624999227
0.011727250502242
0.01135884104542
0.010969880835887
0.010560868922927
0.010132368550364
0.0096849355450326
0.0092192261047714
0.0087358354115974
0.0082355402453356
0.0077189369417739
0.0071869814124879
0.0066401814086123
0.0060797954850451
0.0055060283047791
0.004920672016571
0.01494263166298
0.014919797712899
0.014873556080621
0.014802916886858
0.014707351308076
0.014586815323365
0.01444155340605
0.014271879913541
0.014078067136573
0.013860342542678
0.013618926058305
0.013354068499507
0.013066061392168
0.012755241754874
0.01242197645429
0.012066674091067
0.011689762896382
0.011291724628834
0.010873046805654
0.010434297506953
0.009976016389843
0.0094988787603493
0.0090034514400156
0.0084905568234291
0.0079607303447637
0.0074150203541579
0.0068537972106196
0.0062784870078514
0.0056889668410097
0.0050873263043494
0.015686125667754
0.01566227782968
0.015614074890911
0.015540573993061
0.015441281009948
0.015316155994457
0.015165424827747
0.014989376996505
0.014788262184367
0.014562289073525
0.014311659206242
0.014036605514036
0.01373739923137
0.013414358973033
0.013067830001418
0.012698205482704
0.012305892021843
0.011891363525694
0.011455084484276
0.010997629141755
0.010519506868099
0.010021427222823
0.0095039056173765
0.0089678529575745
0.0084136978212617
0.0078426848462357
0.0072549477344312
0.0066523062571809
0.0060340556525325
0.0054030051954853
0.016723402544522
0.016698408150723
0.016647885277556
0.016570853113567
0.016466807836441
0.016335711291017
0.01617778308622
0.015993294420782
0.015782468118804
0.015545483360538
0.015282510342535
0.014993751763251
0.014679445885089
0.014339881014154
0.013975366952362
0.013586269316315
0.013172957609023
0.012735887604623
0.01227548375336
0.011792322066534
0.011286861497226
0.010759852457572
0.010211728623109
0.0096435192561055
0.0090554904180621
0.0084491541033542
0.0078242850358249
0.0071832326907785
0.0065244089082601
0.0058515895550945
0.018015740322028
0.017989434529597
0.017936248922332
0.017855148595916
0.017745603003264
0.017607563755188
0.017441236270866
0.017246865889569
0.017024638244343
0.016774689609141
0.016497142826543
0.016192153467696
0.015859908525808
0.015500647858015
0.015114625547244
0.014702160824414
0.014263563773499
0.013799254351603
0.013309592424105
0.012795142471911
0.012256284088154
0.011693805482842
0.011108019428225
0.010500091253089
0.0098700597880261
0.0092197650038594
0.0085485013995704
0.0078592909330572
0.0071494019491827
0.006423878419423
0.019529214212007
0.019501510080382
0.01944548178446
0.019360034464843
0.019244603594456
0.019099120725879
0.018923764349893
0.018718739367332
0.018484178042921
0.018220156096972
0.017926729315465
0.017603985015801
0.017252035577533
0.01687104842725
0.016461195402059
0.016022723695614
0.015555854594304
0.015060946732798
0.014538262876402
0.013988333714414
0.01341142215001
0.012808341272755
0.012179235475509
0.011525414723121
0.010846621116834
0.01014507469591
0.0094194682109135
0.0086736292137171
0.0079034202395946
0.0071154186665713
0.021233201970716
0.021204105711335
0.021145240827542
0.021055449233607
0.020934126457448
0.0207811739076
0.020596728707736
0.020380937962698
0.020133861240375
0.019855492834475
0.019545798406725
0.0192047720224
0.01883242361397
0.018428818917421
0.017994015147333
0.017528155143044
0.0170313349218
0.016503818228026
0.015945729958834
0.015357535348657
0.014739334006899
0.014091940155679
0.013415273104166
0.012710783098383
0.011977835874727
0.011219068424338
0.010432440604283
0.009622694992993
0.0087840136079137
0.0079247279750286
0.023099232984341
0.023068841662938
0.023007330271107
0.022913476133767
0.022786628926769
0.022626648930997
0.022433616134214
0.022207600991526
0.021948569327157
0.021656411017211
0.021330975914717
0.02097213655537
0.020579768713952
0.02015380253558
0.019694143011339
0.01920079014797
0.018673671493174
0.018112914388114
0.017518456761382
0.016890656684838
0.016229394134586
0.015535448391593
0.014808445424941
0.01404995666423
0.013258880795163
0.012438289327556
0.011585267493215
0.010705558266121
0.0097913798534617
0.0088529928224947
0.02510028311473
0.025068781317618
0.025004989735895
0.024907622209242
0.024775977155588
0.024609862075319
0.024409283332288
0.024174215251932
0.023904508196545
0.023599923600268
0.023260168299043
0.022884962836987
0.022474014405147
0.022027080206521
0.02154387139117
0.021024201557014
0.020467780841397
0.019874551423325
0.019244207482416
0.018576948524923
0.017872368792256
0.017131163798584
0.016352587151264
0.015538295661721
0.014686618085097
0.013801057664279
0.012877673865495
0.011923265946142
0.010927796970039
0.0099035718122439
0.027210416830628
0.02717806929283
0.027112527560116
0.027012443960628
0.026877060052304
0.026706119032983
0.026499537703561
0.02625717558547
0.025978746556347
0.025663859835321
0.025312051854009
0.024922860035823
0.024495787529687
0.024030379512132
0.023526109392703
0.022982557352822
0.02239916310872
0.021775629149951
0.021111342885488
0.020406284977784
0.019659689384465
0.018872106417533
0.018042327334597
0.017172041570193
0.016258894687703
0.015306794580378
0.014310613975022
0.013278229599957
0.012197047294486
0.011081455317592
0.029404679038268
0.029371821666348
0.029305204473565
0.029203420637927
0.029065649386986
0.028891559151856
0.028680963332226
0.028433590195611
0.028148998035591
0.027826621665522
0.027465801194251
0.027065861041405
0.026626065889606
0.026145710146809
0.025623985433247
0.025060190193042
0.024453438898766
0.02380313615814
0.023108295605825
0.022368611821091
0.02158287726086
0.02075142377205
0.019872481682414
0.018947701295681
0.017973920964271
0.016955399464653
0.015885655382992
0.014773624437203
0.013603846793208
0.01239274324114
0.031659158471182
0.031626183764503
0.031559284817878
0.031456996428414
0.031318430144893
0.031143172059839
0.030930921755341
0.030681262804926
0.030393581684807
0.030067119632898
0.029700997876942
0.029294301289329
0.028846024870098
0.028355176096922
0.027820623027907
0.027241335253185
0.026616048062499
0.025943808922379
0.025223189607983
0.024453526699793
0.0236330869387
0.022761900468381
0.02183753337529
0.02086150575601
0.01982972074903
0.018746695328054
0.01760442092968
0.016412818149473
0.01515325429353
0.013844061809611
0.033951162350161
0.03391850240199
0.03385219865542
0.033750729845659
0.033613139029907
0.033438925881974
0.033227668129136
0.032978793867892
0.032691505217712
0.032364835292605
0.031997669086056
0.031588830643155
0.031137019398262
0.030640924675788
0.03009905412558
0.029510005300916
0.028872084247237
0.028183923716976
0.027443587734635
0.026649980616232
0.025800760081443
0.024895561677287
0.023931188622996
0.022908917242002
0.021823606437175
0.02067989090561
0.019468099567968
0.018198936296934
0.016850290220256
0.015442069870605
0.036259440070614
0.036227552024463
0.036162765156815
0.036063514265131
0.035928779108557
0.035757971888723
0.035550543209086
0.035305758654715
0.035022628278313
0.034699968075527
0.034336415803327
0.033930520050824
0.033480665918994
0.032985200479588
0.032442241700632
0.031849978648436
0.03120624517718
0.030509206431579
0.029756358998273
0.028946100211237
0.028075402436964
0.027143399781602
0.026146051643496
0.025084223892987
0.02395169847121
0.022752935977347
0.02147674852078
0.020134096727939
0.018699632010671
0.017193403524169
0.038564381078758
0.038533729359766
0.038471396914651
0.038375791853623
0.038245839587062
0.038080865916845
0.037880192354875
0.037642920228798
0.037367866797145
0.037053629517941
0.036698595240404
0.036301029797989
0.035858993665191
0.035370476372546
0.034833186707372
0.034244877999936
0.033602879344134
0.032904843180184
0.032147649560036
0.03132911685428
0.030445468950326
0.029495219332112
0.028473430066634
0.027380335801477
0.026208665096701
0.024962268550716
0.023628640214066
0.022218289820827
0.02070351393615
0.019103688362088
0.040848208319933
0.040819249764669
0.040760297081516
0.040669750633592
0.040546492537892
0.040389766892644
0.040198768647635
0.039972438374435
0.039709405899439
0.03940805581182
0.039066529271181
0.03868281172623
0.038254638411204
0.037779635836105
0.037255095515833
0.036678318941525
0.03604611063107
0.035355576926809
0.03460294426043
0.03378539388177
0.032898338843016
0.031939587028097
0.030903191486138
0.029788677596508
0.028587478621651
0.027302895059503
0.02592058166525
0.02445087875434
0.022862809237402
0.021175108336651
0.043095134744878
0.04306830539988
0.043013616947687
0.042929483279632
0.042814756986122
0.04266860761645
0.042490110075424
0.042278053179791
0.042030891143803
0.041746808458643
0.041423713630659
0.041059322930179
0.040651057073602
0.040196185692302
0.039691587381031
0.039134108201098
0.038520022941996
0.037845872624906
0.037107208032713
0.036300532736287
0.035420395989864
0.034463841084085
0.033423795554176
0.032299021693836
0.031079427655495
0.02976774313198
0.028347443525035
0.02682863440032
0.025176543785925
0.023408719003894
0.04529146005043
0.045267162088864
0.045217556858842
0.045141094374587
0.045036612933526
0.044903217671691
0.044739873826816
0.044545232026998
0.044317588275112
0.044054946349329
0.043755003057958
0.043415225508082
0.043032740416029
0.042604477928768
0.042126922132283
0.041596473342384
0.041008887774784
0.040360136142119
0.039645092846359
0.038859555042433
0.037997185803177
0.037054206091256
0.036022349790933
0.034899537198634
0.033673970533581
0.03234775398327
0.030901756776028
0.029345983478732
0.02764100065907
0.025803275986689
0.047425605847984
0.04740419935765
0.047360410768547
0.047292750264767
0.047200059223469
0.047081390989235
0.046935615650321
0.046761263922634
0.046556495368662
0.046319157217074
0.046046761709746
0.045736554905403
0.045385399758425
0.044989915219172
0.044546221341593
0.044050296905018
0.043497407301466
0.042882963477231
0.042201185372052
0.041447146932142
0.0406136408261
0.039695997792623
0.038684774499029
0.037576902365094
0.036358877799234
0.035031920846546
0.033574067718449
0.031995014150037
0.030249589747248
0.028353324230356
0.049488084791537
0.049469885655568
0.049432554353202
0.04937468145161
0.049295128104605
0.049192912627026
0.049066829197662
0.048915310940699
0.048736407941849
0.048527840730741
0.048286969262951
0.048010851709483
0.047696124404055
0.047339132880536
0.046935674590988
0.046481344536746
0.045970958989447
0.045399401050894
0.044760274159913
0.044047941342488
0.043254357742246
0.0423739237276
0.041396065030693
0.040316575336929
0.039120396593984
0.037807501928722
0.036353364545474
0.034766329281158
0.032995132079897
0.031053693630119
0.051471403440673
0.051456687466791
0.051426366562334
0.051379121665863
0.051313848826703
0.051229552027747
0.051124971000972
0.050998462619157
0.050847996328648
0.050671202645192
0.050465331414137
0.050227293145385
0.049953541910339
0.049640192724879
0.049282772268465
0.048876536552542
0.04841590995197
0.047895291108019
0.047307729127568
0.046646913184516
0.04590401786358
0.04507252705584
0.044140764587826
0.043103328219985
0.041943644503071
0.040660337879834
0.039226629576925
0.037649316987669
0.035870000988241
0.033896128083142
0.053369923639595
0.053358904144218
0.053336047425742
0.053300126728306
0.053250085825831
0.053184932996877
0.053103370413709
0.053003697345845
0.052883831029948
0.052741345171116
0.052573421878817
0.05237686911187
0.052148016425019
0.05188279848021
0.051576540908098
0.051224204673793
0.050819904781886
0.050357585264303
0.049829854136141
0.049229730686895
0.048547764543855
0.047776480379126
0.04690328362481
0.045921494436433
0.044812988680315
0.043575039903854
0.042178218144688
0.040629090017145
0.038862266840266
0.036877800808739
0.055179783898485
0.055172501724191
0.055157328436535
0.055133169419793
0.055099054347775
0.055053994813957
0.05499663839972
0.054925234083792
0.054837686834808
0.054731554933851
0.054603985561078
0.054451710355624
0.054270982093877
0.05405759411053
0.053806750987381
0.053513154430215
0.053170725520191
0.052772945920671
0.052312180465467
0.051780655863914
0.051168675232818
0.050467384536248
0.049664065129466
0.04874982468812
0.047706515229237
0.046527885912944
0.045183326728844
0.043676393287433
0.0419378772625
0.039967165845642
0.056899066974197
0.056895238639406
0.056887455656554
0.056874932043056
0.056856842722383
0.056832194597089
0.056799557616738
0.056757130241771
0.056702830456052
0.056634227588972
0.056548476961751
0.056442279512
0.056311858624759
0.056152891133101
0.055960483585093
0.055729044288382
0.055452386688801
0.05512347595604
0.054734639049166
0.054277059604966
0.053741229298099
0.053116121538151
0.052390289294525
0.051550196337165
0.050581989499441
0.049469430905973
0.04819141481822
0.04672643620101
0.045020063392113
0.043034424004823
0.058528478103708
0.058527746629093
0.058526667344829
0.058525319874237
0.058522871703308
0.058518227284859
0.058509965345509
0.058496418974764
0.058475553164023
0.058444883921277
0.058401570207415
0.058342335845797
0.05826348076693
0.058160694327256
0.058029091045944
0.057862934990743
0.057655983915713
0.05740066827242
0.057089243023801
0.056711665212266
0.056258977035299
0.055717789146543
0.055078858340916
0.054322552502332
0.053442461499524
0.052407200519325
0.051220155098831
0.049816543965719
0.048189136541785
0.046104709947097
0.0043600979713179
0.0038269206639734
0.0032856752621839
0.0027374150864167
0.0021830744413155
0.0016234637085431
0.001059305831989
0.00049130127590703
-7.9826350359898e-05
-0.00065332057882186
-0.0012284030133227
-0.0018042866783173
-0.0023801838640668
-0.0029553093812577
-0.0035288832436109
-0.0041001328420738
-0.004668294062233
-0.0052326125400722
-0.0057923454582971
-0.0063467634581233
-0.0068951518283777
-0.0074368089585327
-0.007971041293603
-0.0084971535371332
-0.0090144597847788
-0.0095224478420852
-0.010020751511446
-0.010508840232226
-0.010986132924862
-0.011452098628763
-0.011906278770666
-0.012348271145069
-0.012777715780586
-0.013194285975277
-0.013597690784484
-0.013987669806254
-0.014364001834947
-0.014726492974929
-0.015074995125162
-0.015409376216806
-0.015729563142903
-0.01603547475663
-0.016327121404842
-0.016604451469474
-0.01686758173275
-0.017116450319625
-0.017351344452853
-0.017572130441206
-0.017779441222401
-0.017973071283542
0.0045139032632406
0.0039715204731518
0.0034201813902241
0.002861673695709
0.0022972555796751
0.0017277127619816
0.0011535641077973
0.00057532140082969
-6.3851953136399e-06
-0.00059081785047778
-0.0011771869430022
-0.0017646913003545
-0.0023525320277803
-0.0029399120770999
-0.0035260338794043
-0.0041100988268043
-0.0046913080503282
-0.0052688641877106
-0.0058419748977085
-0.0064098574615134
-0.0069717445316532
-0.0075268920796616
-0.0080745932412242
-0.0086142004265486
-0.0091451262524754
-0.0096666524052566
-0.010177947642649
-0.010678414551165
-0.011167566652043
-0.01164493361003
-0.012110051604284
-0.012562479002273
-0.01300181321569
-0.013427690390625
-0.013839793188229
-0.014237838956602
-0.014621597303577
-0.014990862999663
-0.015345495259701
-0.01568535626797
-0.01601040131463
-0.016320539996842
-0.0166158409206
-0.016896219214742
-0.017161897654767
-0.017412704787072
-0.01764910163494
-0.017870608274379
-0.018078007498413
-0.018269787964982
0.0048034419312065
0.0042374528882579
0.0036603508622154
0.0030756869548862
0.0024856515262932
0.0018911564482261
0.0012924148895811
0.00068963933190983
8.3345212294924e-05
-0.00052570227736608
-0.0011366396126654
-0.0017486024625755
-0.0023607506399655
-0.002972258055469
-0.0035823002198282
-0.0041900487118166
-0.0047946704742587
-0.0053953304914793
-0.0059911980945603
-0.0065814541540514
-0.0071652963594958
-0.0077419412529291
-0.0083106225289359
-0.0088705824333919
-0.0094210621534835
-0.0099613531745796
-0.010490831483337
-0.011008886607017
-0.011514946470709
-0.01200848028318
-0.012488997100947
-0.0129560418433
-0.013409205880537
-0.013848120482024
-0.014272473501811
-0.014681987011242
-0.015076450772902
-0.015455669632123
-0.01581954006276
-0.016167932677454
-0.016500866014342
-0.016818241555921
-0.017120235670061
-0.017406705147006
-0.017678065669284
-0.017933953732027
-0.018175170936558
-0.018400642981443
-0.018611545426919
-0.018804065896691
0.0052133297004659
0.0046103515652578
0.0039933140696695
0.0033686641151521
0.0027400052127283
0.0021083612919176
0.0014734205829138
0.00083491723665218
0.00019318764773932
-0.0004509671785608
-0.0010965871417583
-0.0017427370133627
-0.0023885446729871
-0.0030331728997117
-0.0036757895909715
-0.0043155541942947
-0.0049516144723401
-0.0055831098043404
-0.0062091797509867
-0.0068289729781695
-0.0074416526284876
-0.0080463984767079
-0.0086424100651469
-0.0092289133168759
-0.0098051711854163
-0.010370479153326
-0.010924153863548
-0.011465557510918
-0.011994096581129
-0.012509218185898
-0.013010417217903
-0.013497230826661
-0.013969251716075
-0.014426112733715
-0.014867513663607
-0.01529318202796
-0.015702931769138
-0.016096574511782
-0.016474051001996
-0.016835231958172
-0.017180212945752
-0.017508868578397
-0.017821513238987
-0.01811790248908
-0.01839870771875
-0.018663266030737
-0.018912828733779
-0.019145404940394
-0.019362609533951
-0.019557060030459
0.0057360262410097
0.0050842794778275
0.0044145973839272
0.0037375165706071
0.0030585269447825
0.0023787089236389
0.0016969756908915
0.0010123979567595
0.00032507950106398
-0.00036411977373411
-0.0010541090598106
-0.0017438660871596
-0.0024324880528887
-0.0031191352974027
-0.0038029763990041
-0.0044831638621572
-0.0051588290095816
-0.0058290872117127
-0.0064930504267308
-0.0071498400123595
-0.0077985938211726
-0.0084384685077198
-0.0090686423060959
-0.0096883184690064
-0.010296729281111
-0.010893140446161
-0.011476853557438
-0.012047208353122
-0.012603591202722
-0.013145432970413
-0.013672219126856
-0.014183479668895
-0.014678808974776
-0.015157839375646
-0.015620283175008
-0.016065872204613
-0.016494449353227
-0.016905831473764
-0.017300012910739
-0.017676859886342
-0.018036562689509
-0.018378956467649
-0.018704526473624
-0.019012894242746
-0.019305048831776
-0.019579941570373
-0.019839387884846
-0.020080235866479
-0.020304671794857
-0.020500810287229
0.0063682011970173
0.0056566911141495
0.0049221848629326
0.0041806932015495
0.003440123517146
0.0027015380138826
0.0019627977912257
0.0012221206118503
0.00047933788139611
-0.00026459100391004
-0.001008397380854
-0.0017509488394329
-0.0024913098161279
-0.0032286434866181
-0.003962123124725
-0.0046908951903161
-0.0054140732546766
-0.0061307468493494
-0.0068399992012117
-0.0075409237757208
-0.0082326321647285
-0.0089142549371092
-0.0095849430955676
-0.010243870992545
-0.010890242161448
-0.011523299192212
-0.012142324678236
-0.012746639103928
-0.013335612373892
-0.013908660581662
-0.0144652613524
-0.015004937460266
-0.015527285607349
-0.016031937932635
-0.01651862353008
-0.016987079388597
-0.017437184427124
-0.017868761725231
-0.018281871191091
-0.018676373363314
-0.019052573150053
-0.019410259032161
-0.019750121431728
-0.02007162490297
-0.020376137718712
-0.020662163568821
-0.020932190380099
-0.02118171405245
-0.021413595867249
-0.021610630103701
0.0071092225776975
0.0063273554377372
0.0055160103681897
0.0046983149848885
0.0038851817179472
0.0030775310581468
0.002271842627735
0.0014652736155799
0.00065735181054788
-0.00015080844748777
-0.00095770527182944
-0.0017620714696973
-0.0025629373438866
-0.003359475152417
-0.0041508666173014
-0.0049362510925398
-0.0057147207515904
-0.0064853349207246
-0.0072471438956513
-0.0079992096347933
-0.0087406140930463
-0.0094704583828553
-0.010187863685349
-0.01089197467227
-0.011581967140955
-0.012257057797032
-0.012916504187309
-0.013559603639764
-0.014185707765936
-0.01479421572312
-0.015384594720477
-0.015956356844821
-0.016509100275101
-0.017042453768612
-0.017556163273451
-0.018049968792725
-0.01852378894635
-0.018977449833603
-0.019411084623265
-0.019824543723345
-0.020218261601708
-0.020591971845962
-0.020946596956644
-0.021281427660558
-0.021598259837492
-0.021895105214411
-0.022175203992986
-0.022432552151548
-0.022670729105214
-0.022866528396181
0.0079611137286511
0.0070985315528385
0.0061982804966541
0.0052925741214464
0.0043959878735874
0.0035091107387427
0.0026266413269755
0.0017444459522337
0.00086172919973573
-2.0166154866852e-05
-0.00089943898119924
-0.0017746608187334
-0.0026448287913887
-0.0035091310992566
-0.0043667596031417
-0.0052168423672209
-0.0060584427168958
-0.0068905819787638
-0.0077122708109695
-0.0085225337081344
-0.0093204173798515
-0.010104987889585
-0.010875330871203
-0.011630555014289
-0.012369801196716
-0.013092252558455
-0.013797134828393
-0.014483715252736
-0.01515132022724
-0.015799323944066
-0.016427177156889
-0.017034374051932
-0.017620508273269
-0.018185198232243
-0.018728203582185
-0.019249259483368
-0.019748322717406
-0.02022521548332
-0.020680147171531
-0.021112951401922
-0.021524201073389
-0.021913568319118
-0.022282225016962
-0.022629279212108
-0.022956982744951
-0.023262837369995
-0.023550877128856
-0.023813532243255
-0.024055102536048
-0.024245998694999
0.0089281048912741
0.0079745458094358
0.0069730759084263
0.0059673628563962
0.0049763813186775
0.0040001133605195
0.0030309947057614
0.0020633472432119
0.0010960495577673
0.00013076936877655
-0.00083031627402606
-0.0017855907352404
-0.002734020489131
-0.0036748171450341
-0.0046071826799915
-0.0055302256843539
-0.006442969348847
-0.0073443859574114
-0.0082334366250981
-0.0091090995198493
-0.0099703774699629
-0.010816292233357
-0.011645884062454
-0.012458215174085
-0.01325238078424
-0.014027520115552
-0.014782816754961
-0.015517495853285
-0.016230847558845
-0.01692221012283
-0.017591007085822
-0.018236702659561
-0.018858876602494
-0.019457124032331
-0.020031208469612
-0.020580848285291
-0.02110603164912
-0.021606564871533
-0.022082729213339
-0.022534331379472
-0.022962081189702
-0.023365583727533
-0.023746260203206
-0.024103040678374
-0.024438630498098
-0.024750042981417
-0.025042091953289
-0.025305684853124
-0.025545750880328
-0.025726274720786
0.010016134765963
0.0089613419169296
0.0078459622721746
0.006727952447858
0.0056315003563748
0.0045555949475496
0.003489831441677
0.0024267151329034
0.001364821611481
0.00030626629417745
-0.00074631028962182
-0.0017910777825141
-0.0028269794625226
-0.0038532584450626
-0.0048691233264746
-0.0058736508460091
-0.0068658084765364
-0.0078445048514032
-0.0088086391635136
-0.0097571315512699
-0.010688928873295
-0.011602995686532
-0.012498313331575
-0.013373883460521
-0.014228741537042
-0.015061968013959
-0.015872689446118
-0.016660073822027
-0.017423359592842
-0.018161831403206
-0.018874869783658
-0.019561891197359
-0.020222444476654
-0.020856083179528
-0.021462559179726
-0.022041554160584
-0.022593071260331
-0.023116882814745
-0.023613325798408
-0.024082165618584
-0.0245242307525
-0.024939055219981
-0.025328283014753
-0.025690684925617
-0.026029370559213
-0.026340935809632
-0.026630875638695
-0.026888755312493
-0.0271199197923
-0.027282350759284
0.011232375560417
0.010066048445793
0.008823615037981
0.0075806879426667
0.0063675432939162
0.005181645122495
0.0040090653192293
0.0028402111510075
0.0016734150782684
0.00051139459181469
-0.00064265051455661
-0.0017866557136355
-0.0029195528569728
-0.0040406251106821
-0.0051490809713696
-0.006243947237328
-0.0073241154402609
-0.0083884127220562
-0.009435660769103
-0.010464707002393
-0.011474427017254
-0.012463711457685
-0.013431465217631
-0.014376611123346
-0.015298106401696
-0.016194953673935
-0.017066203039811
-0.017910943924004
-0.018728342224741
-0.019517607149078
-0.020278053434585
-0.021009024783823
-0.02171001566856
-0.022380511523453
-0.023020226287375
-0.023628779046987
-0.024206159723905
-0.024752081065991
-0.025266902551313
-0.025750330200251
-0.026203267956303
-0.02662517848207
-0.027017861559964
-0.027379971393193
-0.027714903826463
-0.028018973444304
-0.028298139884397
-0.028540986011565
-0.028752888088094
-0.028886844561201
0.012584708211597
0.011296534218202
0.0099134451458221
0.0085326654322098
0.0071914865375473
0.005885141617889
0.0045953832164171
0.0033102430658299
0.0020279201006933
0.00075192052912683
-0.00051389618398945
-0.0017672189823633
-0.0030069870102278
-0.0042325303705154
-0.005443043909144
-0.0066374803473036
-0.0078146300655944
-0.008973217165215
-0.010111967766077
-0.011229638692895
-0.012325015033614
-0.013396892806915
-0.014444078824615
-0.015465394484565
-0.01645969554956
-0.017425882253642
-0.018362903462306
-0.01926974457185
-0.020145472039931
-0.020989190005614
-0.021800117600398
-0.022577494361067
-0.023320726187427
-0.024029197504566
-0.024702546588489
-0.025340295045175
-0.025942373412182
-0.026508404622274
-0.027038712541107
-0.027532924968182
-0.02799194082454
-0.028415161254427
-0.028804417322334
-0.029158321965536
-0.029480342389367
-0.029766736756603
-0.030023547894806
-0.030238965562276
-0.030417779271387
-0.030509767666806
0.014081087083643
0.012660780072363
0.011123125730056
0.0095914228647766
0.0081108572400129
0.0066735392303525
0.0052560380460314
0.0038437726604568
0.0024349775234369
0.0010341639335675
-0.00035405144942538
-0.0017271128221854
-0.0030839915431859
-0.0044240686428142
-0.0057465042129449
-0.0070501442636201
-0.0083336477420989
-0.0095956114561906
-0.010834644580958
-0.012049391754006
-0.013238524168444
-0.014400717932655
-0.01553465579244
-0.016639031159576
-0.017712570762863
-0.018754043296698
-0.019762264813671
-0.020736083502217
-0.02167443305413
-0.022576279324618
-0.023440706027829
-0.024266809200636
-0.025053861277977
-0.025801105782069
-0.026508049517715
-0.027174077594014
-0.027798990403321
-0.028382288642992
-0.028924164997283
-0.029424157297788
-0.029883022383244
-0.030300133588326
-0.030677144971244
-0.031012758485103
-0.031310160617775
-0.031565895771902
-0.031785482156129
-0.031957586043954
-0.032085481570313
-0.032118422781929
0.015729317843772
0.014166280725
0.012459820641505
0.010764272771666
0.0091332571044539
0.0075545284114245
0.0059985768023539
0.0044480907689421
0.0029015999126085
0.0013648573885367
-0.00015667935045039
-0.0016602262998585
-0.0031448161874162
-0.0046098770123693
-0.0060545007089144
-0.0074773859157878
-0.0088770251921573
-0.010251860939442
-0.011600361984408
-0.012921035632988
-0.014212410884487
-0.015473013666103
-0.016701371486747
-0.017896018257346
-0.019055519510743
-0.020178479744192
-0.021263545877038
-0.022309391076328
-0.023314772275754
-0.024278474367211
-0.025199395750062
-0.026076446616821
-0.026908705994862
-0.027695232130645
-0.028435323379554
-0.029128185640603
-0.029773386121491
-0.030370276228087
-0.030918768342492
-0.031418317600117
-0.031869315061312
-0.032271183940284
-0.032625065544914
-0.032929969313297
-0.033188252921798
-0.033397279822048
-0.033561110885348
-0.033670088722516
-0.033724656931887
-0.03367741375041
0.017536713189325
0.015820323971469
0.013930430475124
0.012058161139805
0.010265976787013
0.0085356226375393
0.0068304736259596
0.0051304829037551
0.0034348621748119
0.0017508771810984
8.487944491689e-05
-0.0015601670563898
-0.003183387998347
-0.0047842390611711
-0.0063616949956748
-0.0079142558840075
-0.0094402088488169
-0.01093781295983
-0.012405369324184
-0.013841218313136
-0.015243713874657
-0.016611197297605
-0.01794200512409
-0.019234474725121
-0.020486971367132
-0.021697896173329
-0.022865684550623
-0.023988796450246
-0.025065762521432
-0.026095135317495
-0.027075560826301
-0.028005715530091
-0.028884412087239
-0.029710473497147
-0.030482888714527
-0.031200640181031
-0.03186292679486
-0.032468926905541
-0.033018068431795
-0.033509758144451
-0.033943693751179
-0.034319486900745
-0.034637259275237
-0.034896648064357
-0.035098347048023
-0.035241385591195
-0.035326869922341
-0.035348509416486
-0.03530233985137
-0.035149479487803
0.019508100241519
0.01762879390487
0.015541321484774
0.013479801669548
0.011516052163237
0.0096240789198733
0.0077590253700693
0.0058981427589929
0.0040418148481267
0.002199135482034
0.00037737588509278
-0.0014204025175074
-0.0031934530505669
-0.0049412189173444
-0.0066624880706138
-0.0083555039773151
-0.01001830890442
-0.011648948455892
-0.013245525655856
-0.014806178914476
-0.016329047524202
-0.017812249477159
-0.01925389119553
-0.020652074511121
-0.022004921013723
-0.02331057879266
-0.024567219091181
-0.02577304733939
-0.02692631204747
-0.028025275238008
-0.029068256142319
-0.030053641255924
-0.030979886850086
-0.031845518572646
-0.032649101229186
-0.033389333194022
-0.034064891581971
-0.034674736534292
-0.035217575126769
-0.035692793949303
-0.036098993021037
-0.036436151343372
-0.036702750410628
-0.036899412640278
-0.037024126469915
-0.037078853475076
-0.037059002897921
-0.036964325640595
-0.036785075974222
-0.036496930279729
0.021646782875749
0.019595693217326
0.017297041505439
0.015034676837901
0.012889732709461
0.010826492733428
0.0087909082852286
0.0067577483076328
0.004729147050388
0.0027163323125813
0.00072746586447073
-0.0012344089097439
-0.0031686951460876
-0.0050747536456196
-0.0069510965106325
-0.0087956444933184
-0.010606154398891