/*--------------------------------*- C++ -*----------------------------------*\
| =========                 |                                                 |
| \\      /  F ield         | OpenFOAM: The Open Source CFD Toolbox           |
|  \\    /   O peration     | Version:  2112                                  |
|   \\  /    A nd           | Website:  www.openfoam.com                      |
|    \\/     M anipulation  |                                                 |
\*---------------------------------------------------------------------------*/
FoamFile
{
    version     2.0;
    format      ascii;
    arch        "LSB;label=32;scalar=64";
    class       volScalarField;
    location    "6.1";
    object      p;
}
// * * * * * * * * * * * * * * * * * * * * * * * * * * * * * * * * * * * * * //

dimensions      [0 2 -2 0 0 0 0];

internalField   nonuniform List<scalar> 
22000
(
0.048063854094592
0.048041505373852
0.047995198855311
0.047924087246335
0.047827736787501
0.047706104492921
0.047559385177092
0.047387806944665
0.047191542397127
0.046970728000866
0.046725490496942
0.046455959940684
0.046162274934884
0.045844596875886
0.045503096343887
0.045137956967205
0.044749349793771
0.044337472084068
0.043902507577826
0.043444707186766
0.042964280316493
0.042461563321953
0.041936769639904
0.041390366504856
0.040822513292402
0.040233902125979
0.039624507762756
0.038995450306999
0.038346207439865
0.037678711462791
0.048481011203517
0.048457686473513
0.048410314774974
0.048338049847894
0.048240374444732
0.048117196571409
0.047968678220379
0.047795024402865
0.047596397531628
0.047372927031186
0.047124722422513
0.046851888543706
0.046554535272919
0.046232803848532
0.045886850476591
0.045516859632572
0.045123002162
0.044705488391285
0.044264497794593
0.04380029486513
0.043313066836824
0.042803168053102
0.042270763172648
0.041716355728717
0.041140012820334
0.040542497666254
0.039923608561573
0.039284566039257
0.038624464112936
0.037945268129013
0.049244417778374
0.049220473728884
0.049171895833408
0.049097905023194
0.048998044155487
0.048872234037861
0.048720615870946
0.048543367354575
0.048340626489892
0.048112502514135
0.047859085376086
0.047580464036548
0.047276728885348
0.046948003852871
0.046594419144558
0.04621614197803
0.045813313404606
0.045386133017281
0.04493474334441
0.044459409391069
0.043960265978035
0.04343769268315
0.042891769594806
0.042323075054045
0.041731527366321
0.041118055212101
0.040482177324901
0.039825408172065
0.039146210050496
0.038446846757889
0.050301574876998
0.050276991911967
0.050227114138149
0.05015116160392
0.050048697719114
0.049919653604944
0.049764160257843
0.049582370147452
0.049374387616299
0.049140289694813
0.048880135020805
0.048593985813533
0.048281899705157
0.047943971880603
0.047580292970577
0.047191003639422
0.046776200513599
0.046336065375318
0.045870686782934
0.045380328362039
0.044865050271684
0.044325264408568
0.043760933311871
0.043172734491935
0.042560379775599
0.041925010413313
0.041265752213587
0.040584468654224
0.039878718551596
0.039151049242781
0.051607096656308
0.051581836273984
0.051530569697104
0.051452495628115
0.051347176345287
0.051214537102002
0.05105469025147
0.050867760543109
0.05065381649898
0.050412897774733
0.050145021956556
0.049850213534898
0.049528484491085
0.049179889809855
0.048804465583072
0.048402313057033
0.047973465485246
0.047518073635629
0.047036149628551
0.046527945395976
0.045993419463838
0.045433012562671
0.044846533524409
0.044234766807141
0.043597164929927
0.042935106860874
0.042247242236056
0.041535826850729
0.040797359776121
0.04003470810307
0.053120914622158
0.053094977694029
0.053042319803623
0.052962110350114
0.052853902382254
0.052717606909556
0.052553310417774
0.052361103569869
0.052141010238604
0.051893020792159
0.051617096764996
0.051313209621066
0.050981308325652
0.050621390804197
0.050233418311363
0.049817434683714
0.049373387395683
0.048901378996344
0.048401320792006
0.047873437956772
0.047317560350257
0.046734147167813
0.046122822768457
0.045484477250428
0.044818267306982
0.044125818336436
0.0434052608831
0.042659252108992
0.041883144750844
0.041080075883955
0.054807237605495
0.054780681419083
0.054726753316962
0.054644586336253
0.054533718446081
0.054394038359951
0.054225595577761
0.054028433715569
0.053802517614923
0.05354777358106
0.053264090898156
0.052951371464819
0.052609482313237
0.052238345391417
0.051837824699207
0.051407885364168
0.050948363649774
0.050459291931827
0.049940453890503
0.049392026800196
0.048813684271635
0.048205884751574
0.047568040544591
0.046901130006332
0.046203989806285
0.045478471529635
0.044722170999505
0.043938097908192
0.043120430181615
0.042272428224264
0.056633712965346
0.056606657194801
0.056551699931327
0.056467934590907
0.0563548800764
0.056212394663241
0.05604047873371
0.055839114842261
0.055608193302385
0.055347560126474
0.055057014361095
0.054736369080148
0.054385387213136
0.054003892078085
0.053591624891622
0.053148447051927
0.052674054821976
0.052168382673049
0.051631055906748
0.051062174480065
0.050461226459871
0.049828638128471
0.049163585505272
0.048467099608568
0.047737684763686
0.04697736635
0.046183222681452
0.045358512288466
0.044496279117731
0.04359967379133
0.058570772005032
0.058543393564903
0.058487761388331
0.05840292923875
0.058288393692277
0.058143974188817
0.05796960983679
0.05776520798281
0.057530568893528
0.057265441175545
0.056969513816648
0.056642488935777
0.056284000560164
0.055893747067037
0.055471317710216
0.05501644065774
0.054528639790193
0.054007719021787
0.053453111022013
0.052864800926227
0.052242059706254
0.051585236964837
0.050893251355452
0.050167128376978
0.049405041741056
0.048609103839053
0.047775924565709
0.046908851183924
0.045999902953252
0.045051801647969
0.06059122787494
0.060563754557056
0.060507905938799
0.060422697585616
0.060307601827244
0.060162391266391
0.059986931314868
0.059781039267257
0.059544409118464
0.059276674086479
0.058977393677534
0.058646136553328
0.058282381737824
0.057885673494575
0.05745541722474
0.056991174513813
0.056492260082803
0.055958310027854
0.05538852504541
0.054782731209663
0.054139947196659
0.053460386695422
0.052742693991774
0.051987805119552
0.051193581260964
0.050362095770461
0.049489569887703
0.048579227541983
0.047622224078496
0.046620447189868
0.062670049606292
0.062642753705401
0.062587238506819
0.062502485242199
0.062387940502695
0.062243322179675
0.062068410227479
0.0618629176421
0.061626416681806
0.061358407456571
0.061058300556816
0.060725508419359
0.060359329920425
0.059959125354254
0.059524082594694
0.059053560241335
0.058546623945309
0.058002699429049
0.057420711965486
0.056800276101101
0.056140120833882
0.05544025007079
0.054699019395353
0.053917163819384
0.053092262800634
0.052226185714092
0.051314869895802
0.050361148781006
0.049355522602889
0.04829856878598
0.064784255490513
0.064757446307756
0.064702889727227
0.064619538249829
0.064506812812695
0.064364369880207
0.06419189302017
0.063988978299084
0.06375506240408
0.063489496513537
0.063191524039094
0.06286037939109
0.062495156671231
0.062095002531777
0.061658856052154
0.06118583257112
0.060674710754649
0.060124655221328
0.059534273536327
0.058902905542731
0.058228949448736
0.057512115760321
0.056750450261265
0.055944357475781
0.055091173310058
0.05419234957689
0.053243679932255
0.052247280071542
0.05119322510914
0.050080257753519
0.066912881117729
0.066886894534851
0.066833977091469
0.06675306082591
0.066643541959845
0.066505009923642
0.066337042938716
0.066139109904964
0.06591050073569
0.065650404786865
0.06535788268598
0.065031971696679
0.064671538551425
0.064275488581796
0.063842482092218
0.063371352696597
0.06286055491131
0.062308937551748
0.061714750637187
0.061076983208174
0.060393667471539
0.059664114957757
0.058886044930853
0.058059379494472
0.057181243834914
0.056252435223118
0.055268745859202
0.054231193393616
0.053129688274611
0.051960558484467
0.069036987374886
0.069012175835072
0.068961612346351
0.068884218523584
0.068779368896602
0.06864658230236
0.068485324958816
0.068294931444687
0.068074537359504
0.067823161145221
0.067539669073065
0.067222885941831
0.066871432562388
0.066483948788982
0.066058789708463
0.065594471005985
0.065089089322551
0.064541123038904
0.063948426189312
0.063309554899092
0.062622143068185
0.061884980047239
0.061095448088381
0.060252808309869
0.059354008853655
0.058398930552359
0.057383493579375
0.056307207970722
0.055160072255628
0.053935357824888
0.07113968343956
0.071116404298607
0.071068921269016
0.070996157971142
0.070897471225084
0.070772307617232
0.07062001806192
0.070439799434852
0.070230629873758
0.069991352591857
0.069720633187752
0.069417073606632
0.069079035890314
0.068704875118677
0.068292620995409
0.067840438747194
0.067346039346161
0.066807478034583
0.066222179758982
0.065588182994838
0.064902692693027
0.064163845989967
0.063368673245184
0.06251558197768
0.061601370219269
0.060624718276231
0.059581796829238
0.058470163987797
0.05728013586884
0.056001241748639
0.073206143015205
0.07318474812409
0.073141062117936
0.0730740245417
0.072982980415695
0.072867304819416
0.072726233008114
0.072558824850482
0.072363903004546
0.072140136584347
0.071885990243881
0.071599838586479
0.071279779147869
0.070923869144767
0.070529801212583
0.070095362959702
0.069617861163939
0.06909487803149
0.068523385534043
0.067900821111081
0.067223933411607
0.066490078754418
0.065695912083926
0.064838794746858
0.063915382895444
0.06292285443766
0.061857748032461
0.060715185822287
0.059486018194267
0.058155312640042
0.075223602636989
0.075204427775386
0.075165224012952
0.075104962577189
0.075022984695421
0.074918597097218
0.074790922114697
0.074638887017175
0.07446116578064
0.07425626009529
0.074022440059301
0.07375785533217
0.073460341429031
0.073127651940869
0.072757140493948
0.072346197386697
0.071891717766594
0.071390767821944
0.070839852001353
0.070235731779426
0.069574674820142
0.068853139999777
0.068067373881636
0.067213508290188
0.066288052036787
0.065286360018433
0.064205455511696
0.063037489712364
0.061774041976912
0.060394980025497
0.077181329624851
0.077164685873431
0.077130600564678
0.077078094156786
0.077006512889574
0.076915099097824
0.076802869188721
0.076668628251954
0.076510913680623
0.076328070469105
0.07611818568479
0.075879193188968
0.075608677810148
0.075304092928679
0.074962461094524
0.074580766281782
0.07415549453092
0.073683166357664
0.073159811665494
0.072581456999339
0.071943867570532
0.07124250475495
0.070473173251795
0.069630600498549
0.068711141697345
0.067707996618959
0.066618777277295
0.06543212349962
0.064140482504124
0.062717765401697
0.079070559479863
0.079056724789074
0.079028331141907
0.078984467115251
0.0789244892929
0.078847580744587
0.078752662264668
0.078638431658259
0.078503309439842
0.078345502339619
0.078162931408646
0.07795332760307
0.07771404205702
0.077442240802243
0.077134633246618
0.076787802448394
0.076397835953753
0.07596069884448
0.075471943668119
0.074926829676796
0.074320597440306
0.073647639989327
0.07290328218429
0.072080700464383
0.071176069883554
0.07018014276817
0.069091132654599
0.067893675923841
0.066581153072953
0.065120820740814
0.080884402965631
0.080873622136598
0.0808514207906
0.080816969605376
0.080769649649744
0.080708597056258
0.080632645574769
0.080540395771885
0.080430171130657
0.080300067392774
0.080147870663336
0.079971131003825
0.079766986874396
0.079532334733761
0.079263596544186
0.078956974681178
0.078608176641681
0.078212625171429
0.077765394865048
0.077260981866197
0.076694071523747
0.076057975906529
0.07534746459557
0.074554119641988
0.073673804681171
0.072694736456092
0.071615515801591
0.070416432663095
0.069091477080203
0.067600528216419
0.08261770698317
0.082610207014556
0.082594636851244
0.082570248789258
0.082536463324411
0.082492395393932
0.082436819600846
0.082368255203949
0.082284939508599
0.082184871118321
0.08206573311285
0.081924929853725
0.081759424802868
0.081565870720763
0.081340436088709
0.081078971404986
0.080776834386179
0.080428935852805
0.080029879110081
0.07957343662162
0.079053695754349
0.078462960478303
0.077795290517543
0.077040833848672
0.076194742027054
0.075243099776023
0.074184155710667
0.072994564144355
0.071667250713271
0.070154192752515
0.084266869227774
0.084262852092639
0.084254319489978
0.084240573452022
0.084221058990321
0.084194887435089
0.084160810148883
0.084117307622789
0.084062575357919
0.083994537378573
0.083910782527365
0.083808581886837
0.083684770533169
0.083535797944795
0.083357630074207
0.083145793233257
0.082895347923584
0.082600721244806
0.082256082199707
0.081854520306974
0.081389511326488
0.080852466021644
0.080236546691945
0.07953084414682
0.07872904374547
0.077816196027551
0.076787992201502
0.075621035641312
0.074302252211546
0.072781610117031
0.085829721179335
0.085829301833269
0.08582806926636
0.085825394699719
0.085820778316107
0.085813302224522
0.085801669985169
0.085784335037649
0.085759496580851
0.08572507182444
0.085678593100295
0.085617204661617
0.085537653167304
0.085436230826284
0.085308767339622
0.085150479385471
0.084956203709513
0.084719877602882
0.084435324727958
0.084094907171149
0.083691599650746
0.083215869136414
0.082660044255638
0.082012313415091
0.081264528821204
0.080401801982731
0.07941412993764
0.07828264677437
0.076977774770713
0.075471981395914
0.087305545611185
0.087308807758044
0.087314805575647
0.087323104402101
0.087333505009417
0.087345106204278
0.087356499700698
0.087366168878951
0.087372344574041
0.087372855217813
0.087365112065185
0.087346138393708
0.087312635807846
0.087260797930793
0.087186420690934
0.087084463798919
0.086949624346317
0.086775312924355
0.086555134970492
0.086280543334968
0.085944292675095
0.085535373490506
0.085046036969331
0.084462281600121
0.083776227169071
0.082970526034072
0.082033840909758
0.080945713121268
0.079655230925931
0.078159845965682
0.088695100546501
0.088702474277751
0.088715614720435
0.088734470034173
0.088759301504888
0.088789357504226
0.088823026503388
0.088858949045536
0.088896035403178
0.0889320366629
0.088964027464163
0.088988757649353
0.089002728364094
0.089001887526336
0.088981987478042
0.088937907634928
0.088864357876823
0.088754348073535
0.08860142472817
0.088396162964355
0.088131389360442
0.087794116170459
0.087377486206862
0.086863072237517
0.086247176992092
0.085502378938935
0.08463238545395
0.08359448022765
0.082363321689191
0.080800327865473
0.037033851923019
0.036415577231013
0.035782386910799
0.035135249462531
0.034475103038797
0.033802704220135
0.03311863136705
0.032423368034724
0.031717394601075
0.031001238778871
0.030275486645526
0.029540774779639
0.028797777200172
0.028047190853029
0.027289725701472
0.026526103069191
0.025757061641802
0.024983361959201
0.024205786617726
0.02342513600354
0.022642231966173
0.021857924227086
0.021073131898901
0.02028887260879
0.019506320621095
0.018725637102961
0.017947500631555
0.017172894188247
0.016402838898626
0.015638318236175
0.014880256562618
0.014129507950247
0.013386862405638
0.012653065911845
0.011928836441417
0.011214864885514
0.010511810623167
0.00982030117235
0.0091409325250547
0.008474278912224
0.0078208851066407
0.0071812888842438
0.0065559844872249
0.0059454852145683
0.0053502108205639
0.0047706695250113
0.0042071350397736
0.0036601634799367
0.0031296495268406
0.0026161795158754
0.037292180195786
0.0366686539506
0.036028331645875
0.035373463824051
0.03470572902958
0.034025985690554
0.033334528645899
0.032631502716422
0.031917174637264
0.031191990209593
0.030456523519253
0.029711419814968
0.028957358178754
0.028195028079256
0.027425123130398
0.026648353831197
0.025865465845969
0.025077248677593
0.024284529504274
0.023488163657796
0.022689018509087
0.021887960131509
0.021085780104569
0.020283127109183
0.019480333542684
0.018679428129202
0.017881640051439
0.017087801408315
0.016298720458402
0.015515240046325
0.014738229672664
0.013968579209755
0.013207182071207
0.012454911347726
0.011712601429983
0.010981049284167
0.010261011249529
0.0095532151132997
0.0088583395503925
0.0081770458546329
0.0075099228810166
0.0068575793453037
0.0062204853013195
0.0055992329326616
0.0049940956733722
0.0044057522294874
0.0038341142683119
0.0032802446402889
0.0027435658553855
0.0022265070475628
0.037776480655282
0.037135655851593
0.036473637415377
0.035795720678581
0.035105397521709
0.034403883697679
0.033690994274491
0.032966288627963
0.032229712882005
0.031481653935193
0.030722750893464
0.02995373379912
0.029175340478319
0.028388280948277
0.027593240934651
0.026790917363939
0.025982056562255
0.025167463561621
0.024347984043891
0.023524481914372
0.022697833683157
0.021868934767933
0.021038739148755
0.020208308582862
0.019378966145726
0.018551358405934
0.017726443541705
0.016905254416207
0.016088791312863
0.015278040305315
0.014473989765024
0.013677624479607
0.012889909286335
0.012111779121041
0.011344124906948
0.010587799393768
0.0098435981789563
0.0091122898950963
0.0083945659195494
0.0076911245255727
0.007002532513925
0.0063294574448327
0.0056722874694759
0.0050317687699221
0.004407971028908
0.0038020108827012
0.0032133408532036
0.0026442514457337
0.0020933433991466
0.0015668528559491
0.038454650109033
0.037785224074382
0.037088451827144
0.036374482011599
0.035649506768497
0.034915163829814
0.034170471107393
0.033414092139474
0.032645509808601
0.031865045209609
0.031073440070405
0.030271534092739
0.029460121808066
0.028639909240961
0.027811536976462
0.026975651558929
0.026132972455705
0.025284306417055
0.024430517240628
0.023572494285743
0.022711145956349
0.021847409330672
0.0209822516958
0.020116654902859
0.019251559401266
0.018387977159346
0.017526912859206
0.016669400664493
0.015816496791612
0.014969260725628
0.014128741296433
0.013295971563782
0.012471961590021
0.01165769829286
0.010854126279568
0.010062159714223
0.0092826430273564
0.008516404805712
0.0077641613629726
0.0070266751723748
0.0063044930683475
0.0055983834411025
0.0049086196427972
0.0042361763262785
0.0035807825691754
0.0029441539725896
0.0023249194053555
0.0017270816649984
0.0011480059584706
0.00059991432230347
0.039305394084609
0.038598062162477
0.03785551213896
0.037094508930336
0.036324758585172
0.035548319941347
0.034763059626554
0.033966424799333
0.033157297743741
0.03233593534737
0.031503225956554
0.030660146018505
0.029807543192053
0.028946095157949
0.028076366347522
0.027198924447609
0.026314440873261
0.025423707085719
0.024527583335798
0.023626948406589
0.022722688854071
0.021815711346624
0.020906951553522
0.019997371706427
0.019087960674518
0.018179739204518
0.017273749814075
0.016371055152689
0.015472734350042
0.014579876698612
0.013693575146668
0.012814921926578
0.011944995284154
0.011084858006128
0.010235528221926
0.0093979986830808
0.0085731745182691
0.0077619573709135
0.0069650901754596
0.0061834105360921
0.0054174312429645
0.0046680456565181
0.0039353707754748
0.0032206856028667
0.0025232824309924
0.0018457065366705
0.0011855698468725
0.00054923165252805
-6.7545414579132e-05
-0.0006444711582989
0.040312275736642
0.039558864541111
0.038760538121324
0.037942502213942
0.037118780036862
0.036291825893877
0.035457997578362
0.034613221729612
0.033755666315745
0.032885547875486
0.032003958594408
0.03111204326653
0.030210703075636
0.029300568808012
0.028382102744334
0.0274557701054
0.026522176254435
0.025582082564462
0.024636330725135
0.023685772627585
0.022731259182481
0.021773663319098
0.020813897030663
0.019852909962993
0.018891691460583
0.017931239048871
0.016972586571453
0.016016794290352
0.015064950532301
0.014118170460208
0.013177590598777
0.012244361789073
0.01131963105292
0.010404537565316
0.0095001735399428
0.008607610631456
0.0077278126379974
0.0068617540371721
0.0060101984750159
0.0051740652000528
0.0043538184915512
0.0035505039105372
0.0027640419986412
0.001996102405331
0.0012454256825972
0.00051562646456594
-0.00019700031100352
-0.00088305932039997
-0.0015488256394487
-0.0021638538838595
0.041461481354061
0.04065453277615
0.0397911322231
0.038906843930895
0.038020781959976
0.037135714867835
0.036246102570124
0.035346048483982
0.034432914409008
0.033506921026235
0.032569430769374
0.031621786486326
0.030664933474224
0.029699428226564
0.028725602335916
0.027743793895465
0.026754523105565
0.025758506129271
0.024756550144289
0.023749461849811
0.022738037276608
0.021723095443815
0.02070550086542
0.01968616031251
0.018666003767125
0.017646007823425
0.016627172235624
0.015610536392542
0.014597186121415
0.013588251844642
0.012584904850351
0.0115883471346
0.010599791139
0.009620452024946
0.0086514997784332
0.0076940880804731
0.0067492441486784
0.0058180215529056
0.0049012077243338
0.0039998167558018
0.0031142581890128
0.0022457668680455
0.0013940320052937
0.0005612202418805
-0.00025459642013279
-0.0010484346453143
-0.0018256224835694
-0.0025728242777198
-0.0032988705151962
-0.0039595513319391
0.042741744636351
0.041874367213151
0.040937136951701
0.039978014298386
0.039021950122168
0.03807188244576
0.037119949275087
0.036158124166195
0.035182880730219
0.034194502388309
0.033194695855025
0.032185029294374
0.031166478434307
0.030139494197584
0.029104245330464
0.028060919660174
0.027009936449595
0.025951951003866
0.024887716890671
0.023817972296182
0.02274343212472
0.021664833656042
0.020582965357339
0.019498662241012
0.018412794924033
0.017326268603972
0.016240030212781
0.015155075986555
0.014072465060268
0.012993320549492
0.011918830950458
0.010850234621067
0.0097888014367323
0.0087358153809381
0.0076925238471028
0.00666016186613
0.0056398248848119
0.0046326462811639
0.0036394390003831
0.0026613161655187
0.0016986211101775
0.00075280077601027
-0.00017673957279016
-0.0010872488744769
-0.0019814880941265
-0.0028528264468138
-0.0037086381331796
-0.0045307816378642
-0.0053314151447869
-0.0060493485510922
0.044143765807939
0.043209463760685
0.042190030993684
0.041147991330891
0.040114821934473
0.039093398913966
0.038073083491045
0.037043437556494
0.036000003075605
0.034943199484795
0.033875147274349
0.032797663077254
0.03171173526193
0.03061767234859
0.029515444691269
0.028405064353757
0.027286833911287
0.026161333389792
0.02502924073139
0.023891197165572
0.022747807105546
0.021599698024712
0.020447554609655
0.019292110937997
0.018134138167209
0.016974441177726
0.015813877268874
0.014653368063343
0.013493918027608
0.012336611199548
0.011182625068842
0.010033209359769
0.0088896761482445
0.0077533632770941
0.0066255911329766
0.0055076648792156
0.0044007493284045
0.0033060487415105
0.0022244046346976
0.0011570247881405
0.00010418095070649
-0.00093244954881308
-0.0019537875341664
-0.0029563995237068
-0.0039440330986659
-0.0049080709332903
-0.0058583511474304
-0.0067708369923208
-0.0076617158021061
-0.0084486289396695
0.045659766773655
0.044652245588986
0.043542434610075
0.042409753786533
0.041292836867438
0.040194155376064
0.0390997857318
0.037996615814416
0.036879256170382
0.035748362382104
0.034606537730206
0.033455857975604
0.032297302304969
0.031131000815489
0.029956688216295
0.028774176476958
0.027583636572295
0.026385554530705
0.025180505444151
0.023969000360871
0.022751497483425
0.021528478749954
0.020300490230891
0.019068128775119
0.017832030920564
0.016592863269392
0.015351340753083
0.014108255040726
0.012864519175574
0.011621148671705
0.010379277351352
0.0091401263821707
0.0079050242707272
0.006675334808906
0.0054524393936716
0.0042376888832281
0.0030323163779359
0.0018375732566285
0.00065433720941523
-0.00051610877135653
-0.0016735574460397
-0.0028160961539596
-0.0039449968603464
-0.0050560482848072
-0.006154131666121
-0.0072282707777316
-0.0082912295195545
-0.0093118129234282
-0.010311081458969
-0.011180520769576
0.04728321122257
0.046196242236256
0.044987965108133
0.043757191360975
0.042550232439441
0.041368688151823
0.040194819537429
0.039012629498286
0.037815853565337
0.036605501581401
0.035384719450331
0.034155840421018
0.032919797608183
0.031676497133527
0.030425405267174
0.029166115136561
0.027898651495925
0.026623385694998
0.025340757770805
0.024051109941111
0.022754714311375
0.021451864664387
0.020142924119692
0.018828302419062
0.017508447243256
0.016183846211683
0.014855037089916
0.013522620833522
0.0121873439358
0.01085009133811
0.0095119146800411
0.0081739610069966
0.0068375344758241
0.0055039749650226
0.0041747029954959
0.0028510700594325
0.0015343731906776
0.00022586499903713
-0.0010735243619887
-0.0023624821945903
-0.0036408353451965
-0.0049064621457005
-0.0061609740686992
-0.0073993202903129
-0.0086276240100882
-0.0098321880622394
-0.011029151511148
-0.012178789959762
-0.01330788746788
-0.014275980577819
0.049008613435662
0.047835859508965
0.046520966445254
0.045184838267448
0.043881846852712
0.042612081838708
0.041353415793527
0.040086811669809
0.038805251535802
0.037510258740253
0.036205591412472
0.034893813964335
0.033575748886538
0.032251026869964
0.030918823076939
0.029578506059645
0.028229940588236
0.02687335197082
0.025509006336416
0.024137033526107
0.02275747409685
0.021370386213443
0.019975895058826
0.018574172373178
0.017165412797186
0.015749834631619
0.014327736000539
0.012899491933458
0.011465619113495
0.010026773286312
0.008583843860533
0.0071378380728112
0.005689987232364
0.0042415349165467
0.0027939011854955
0.0013483677324784
-9.3712102307829e-05
-0.0015311630074032
-0.0029629751046717
-0.0043878937920218
-0.0058057147387178
-0.0072141886203108
-0.0086151940698322
-0.010002842656856
-0.011384531495228
-0.012743527049982
-0.014099728896024
-0.015403424048707
-0.0166878837845
-0.01777402235895
0.050831413266436
0.049566336691725
0.048136542837739
0.046687920155742
0.045283104268596
0.043919874322032
0.042571134048415
0.041214720099291
0.039843042729882
0.038458327279625
0.037065019648215
0.035665877128249
0.034261519423329
0.032851237782439
0.031433909945104
0.030008687906574
0.0285752615123
0.02713367233446
0.025683964366169
0.024226005306772
0.022759550421609
0.021284366227542
0.019800278230845
0.018307144782204
0.016804841693198
0.01529325002356
0.013772328316975
0.012242119194931
0.010702828553907
0.0091547970284969
0.0075986569429463
0.0060351733688954
0.004465425868901
0.0028904653504685
0.0013116523191274
-0.00026990719208169
-0.0018528254953119
-0.0034361240940252
-0.0050186774578094
-0.0065994354145861
-0.0081780493115306
-0.0097523072189871
-0.01132418147038
-0.012887059560986
-0.014449501191286
-0.015991525067496
-0.017537038692079
-0.019024816303402
-0.020495226375764
-0.021722791846864
0.052747882934908
0.051383641574871
0.049830438216853
0.048262246710767
0.046749963651225
0.045288061190124
0.043843871839678
0.042392118767676
0.04092492425409
0.039445441505241
0.037958854730892
0.036468032602284
0.034973290122821
0.03347353166308
0.031967341237161
0.030453668396064
0.028932015273957
0.027402196346525
0.02586397804053
0.024316908999426
0.022760399365258
0.021193856768715
0.019616736769145
0.01802850311994
0.01642862004604
0.014816537010553
0.013191765984309
0.01155389336831
0.0099026953578545
0.0082380833192228
0.0065603116545765
0.0048697681527023
0.0031672637566088
0.0014535282178697
-0.0002702311660172
-0.0020032226917814
-0.003744075694231
-0.0054921722496138
-0.0072462417938853
-0.0090056486882829
-0.010769740235011
-0.012536609100605
-0.014308006581613
-0.01607687352544
-0.017852567690573
-0.019611868317357
-0.021382633160328
-0.023090689173065
-0.02478374898337
-0.026181031960372
0.054755044148182
0.053284419886643
0.051599018975565
0.049904234586701
0.048278966392884
0.046713148763926
0.045167923354183
0.043615043103483
0.042046761431832
0.040467422918047
0.038882951456545
0.03729620053656
0.035707075763463
0.034114068812068
0.032515494547008
0.03091011508965
0.029297227037384
0.027676375310746
0.026046990350517
0.024408237646022
0.022759115742301
0.021098596426793
0.019425680101712
0.017739341827839
0.016038525186092
0.014322128694066
0.01258908450056
0.010838377563288
0.0090692010627624
0.0072808869382489
0.0054731520660684
0.0036458406939784
0.0017993247073131
-6.6150883366591e-05
-0.0019496789657065
-0.0038509511943559
-0.0057687213004798
-0.0077029272240308
-0.0096521678670347
-0.011616484328998
-0.013594756284282
-0.015585743706909
-0.017590536536494
-0.019602078058303
-0.021629823475103
-0.023647635649463
-0.025686705959781
-0.027658830019183
-0.029618563488916
-0.031219891425538
0.056850551237289
0.055265961946751
0.053439322378464
0.051610973032669
0.049867245782288
0.04819210748491
0.046539949552588
0.044879844599403
0.043204683099338
0.041520273481544
0.039833247480869
0.038146281838234
0.036458775200705
0.034768814554879
0.033074484835685
0.031374377462146
0.029667563774622
0.027953269238382
0.026230528378839
0.024498062668629
0.022754392975315
0.020997970585688
0.019227213520749
0.017440493450653
0.015636156371608
0.013812380387723
0.011967343999752
0.010099269059782
0.0082065743124322
0.0062878128598543
0.004341942471438
0.0023680638807733
0.00036587646772875
-0.0016650541772674
-0.0037243564057447
-0.005812383967331
-0.0079282196034351
-0.010072547085342
-0.012243951193527
-0.01444341697214
-0.016669269029607
-0.018921349897306
-0.021199623200537
-0.023497600207838
-0.025823878089996
-0.028149958150304
-0.030509070177153
-0.032798434959595
-0.035077506712598
-0.036924592298074
0.059032484897722
0.057326030185808
0.055348960904785
0.053380227728836
0.051512612074852
0.049722475706509
0.047957045003482
0.04618322427827
0.044395132264796
0.042600266295758
0.040805863597149
0.039014251766602
0.037224257204289
0.035433605382486
0.033640218468723
0.031842537466863
0.030039378027013
0.028229590885823
0.026411748312303
0.024584061392871
0.022744514533984
0.020890971253043
0.019021169622374
0.017132606356339
0.015222992087124
0.013289606026861
0.011329662573912
0.0093404169105037
0.0073192775000921
0.0052637761486139
0.0031718187646837
0.0010415094868182
-0.0011284555549741
-0.0033394168933302
-0.0055919012058469
-0.0078870882900316
-0.010224766306112
-0.012606460954502
-0.01503107287143
-0.017500662418944
-0.020013118492535
-0.022569706695616
-0.025168894551111
-0.027805357555777
-0.030485829058909
-0.033179942331721
-0.035921419781115
-0.038592154295074
-0.041253264405443
-0.043396773013359
0.061299174971548
0.059462688674704
0.057325962093333