/*--------------------------------*- C++ -*----------------------------------*\
| =========                 |                                                 |
| \\      /  F ield         | OpenFOAM: The Open Source CFD Toolbox           |
|  \\    /   O peration     | Version:  2112                                  |
|   \\  /    A nd           | Website:  www.openfoam.com                      |
|    \\/     M anipulation  |                                                 |
\*---------------------------------------------------------------------------*/
FoamFile
{
    version     2.0;
    format      ascii;
    arch        "LSB;label=32;scalar=64";
    class       volVectorField;
    location    "11.4";
    object      U;
}
// * * * * * * * * * * * * * * * * * * * * * * * * * * * * * * * * * * * * * //

dimensions      [0 1 -1 0 0 0 0];

internalField   nonuniform List<vector> 
22000
(
(1.0000009749654 -2.4759834686207e-05 0)
(1.000025502764 -7.4134184540716e-05 0)
(1.0000727355345 -0.0001232227823367 0)
(1.0001435967872 -0.00017201742442899 0)
(1.000238440101 -0.00022066892329249 0)
(1.0003572793451 -0.00026927944311604 0)
(1.0004999549541 -0.00031779531120467 0)
(1.0006662504661 -0.0003660706852279 0)
(1.0008559446356 -0.0004139450880723 0)
(1.0010688271173 -0.00046131497282026 0)
(1.0013046603798 -0.00050809946582918 0)
(1.0015631894287 -0.00055427541925364 0)
(1.0018441087273 -0.00059977826425928 0)
(1.0021471160135 -0.00064461284943222 0)
(1.0024718386547 -0.00068865831686496 0)
(1.0028179368602 -0.00073195093769892 0)
(1.0031849441998 -0.00077425315020231 0)
(1.0035724882996 -0.00081571797037729 0)
(1.0039799613081 -0.00085589445367409 0)
(1.0044069934481 -0.00089525131447076 0)
(1.0048527677779 -0.00093286919337049 0)
(1.0053170187259 -0.00096994698022128 0)
(1.0057985899649 -0.0010044780790118 0)
(1.0062975255792 -0.0010393343174331 0)
(1.0068120626219 -0.0010699983906964 0)
(1.0073429546029 -0.0011031753132244 0)
(1.0078873071073 -0.0011285483066665 0)
(1.0084473196221 -0.0011615796054893 0)
(1.0090179643287 -0.0011786383832066 0)
(1.0096043602613 -0.0012151784291777 0)
(1.0000004371691 -7.2922087059621e-05 0)
(1.0000250756785 -0.00021862494393721 0)
(1.0000728654689 -0.00036367207943447 0)
(1.0001446287244 -0.00050795542023324 0)
(1.0002407485062 -0.0006518743474094 0)
(1.000361296141 -0.00079570991306047 0)
(1.0005061438438 -0.00093930459644024 0)
(1.0006750981039 -0.001082244032366 0)
(1.0008679507895 -0.0012240744309825 0)
(1.0010845248806 -0.0013645008293914 0)
(1.0013245997758 -0.0015032817258019 0)
(1.0015879660922 -0.0016403331653428 0)
(1.0018743098124 -0.0017754466665835 0)
(1.0021833792948 -0.0019086189651805 0)
(1.0025147441841 -0.0020394876771222 0)
(1.0028681554849 -0.0021681532786494 0)
(1.0032430148324 -0.0022939233600713 0)
(1.0036391508303 -0.0024172388207081 0)
(1.0040556660999 -0.0025367862397448 0)
(1.0044926291764 -0.0026539154227331 0)
(1.0049485782096 -0.0027659572866718 0)
(1.0054242058232 -0.0028763679922538 0)
(1.0059169314285 -0.0029793498068765 0)
(1.0064289028877 -0.003083171302893 0)
(1.0069552480157 -0.0031748288729792 0)
(1.0075012835685 -0.0032735830483854 0)
(1.0080574493385 -0.0033498230721 0)
(1.0086356726887 -0.0034478577653944 0)
(1.0092168676698 -0.0035000706677904 0)
(1.009826891574 -0.003607750320656 0)
(1.0000004451756 -0.00011931372072734 0)
(1.0000261990652 -0.00035827200637414 0)
(1.0000761243967 -0.00059638777595822 0)
(1.0001509812317 -0.00083334330355892 0)
(1.0002510965026 -0.0010697335090953 0)
(1.0003765096751 -0.0013059858586324 0)
(1.0005270738738 -0.0015418604932812 0)
(1.0007026076577 -0.0017767519759544 0)
(1.0009029247632 -0.0020100023246721 0)
(1.0011279119138 -0.0022411833526118 0)
(1.0013773885749 -0.0024698964715755 0)
(1.0016512259326 -0.0026959623102937 0)
(1.0019490998981 -0.0029189711818743 0)
(1.0022708369144 -0.0031388742798502 0)
(1.002615910731 -0.0033550393275716 0)
(1.0029842136078 -0.0035676499340726 0)
(1.0033749312816 -0.0037755543720422 0)
(1.0037882186281 -0.0039795320072403 0)
(1.0042227022185 -0.0041773650760435 0)
(1.0046791772956 -0.0043713634751689 0)
(1.0051551001146 -0.0045569864521096 0)
(1.0056527844648 -0.0047401258030252 0)
(1.0061672059173 -0.004910914247359 0)
(1.0067041492962 -0.0050834324901673 0)
(1.0072532805196 -0.0052355410975942 0)
(1.0078279837663 -0.0054000079200599 0)
(1.0084066916949 -0.0055264299671784 0)
(1.0090189659039 -0.0056901761112262 0)
(1.009619701764 -0.0057762275913144 0)
(1.0102735274506 -0.0059568478348579 0)
(1.0000004336672 -0.00016501626632414 0)
(1.000027473391 -0.00049630209127449 0)
(1.0000800037451 -0.00082655425096032 0)
(1.0001587913272 -0.0011551495055925 0)
(1.0002641301829 -0.0014828692156168 0)
(1.0003960133018 -0.0018102796409279 0)
(1.0005542452161 -0.0021371065152078 0)
(1.0007386443903 -0.0024626734804838 0)
(1.0009490507231 -0.0027862526035817 0)
(1.0011854450845 -0.0031073727323095 0)
(1.0014477094837 -0.0034254867624546 0)
(1.0017358348445 -0.003740273523258 0)
(1.0020494866188 -0.0040510376327839 0)
(1.0023886067974 -0.0043576326256519 0)
(1.0027525362299 -0.0046591102425892 0)
(1.0031413742414 -0.0049557702144475 0)
(1.0035540028664 -0.0052459859051514 0)
(1.0039910501653 -0.0055309606112172 0)
(1.0044504670338 -0.0058074911733397 0)
(1.0049340969074 -0.0060789868960811 0)
(1.0054378517479 -0.0063388151064047 0)
(1.0059663771717 -0.006595615715079 0)
(1.0065111503865 -0.0068349581107469 0)
(1.0070831805832 -0.007077452338681 0)
(1.0076643098441 -0.0072906924974614 0)
(1.008279499424 -0.0075225765369861 0)
(1.0088899968918 -0.0076993456070187 0)
(1.0095506456524 -0.0079311486913366 0)
(1.0101791510895 -0.0080498238482788 0)
(1.0108956396158 -0.0083071133913649 0)
(1.000000416341 -0.00021025900537504 0)
(1.000028946775 -0.00063357898607104 0)
(1.0000845201387 -0.001055734353513 0)
(1.0001679188549 -0.0014756436125576 0)
(1.0002794079997 -0.0018942495824051 0)
(1.0004189307194 -0.0023122518237697 0)
(1.000586233722 -0.0027294041989429 0)
(1.000781138242 -0.0031451038689369 0)
(1.0010035217058 -0.0035587113610594 0)
(1.0012534918925 -0.0039698193026759 0)
(1.0015310180303 -0.0043777419264755 0)
(1.00183625327 -0.0047819624773456 0)
(1.0021688581508 -0.0051813989248898 0)
(1.0025289336451 -0.0055757470419897 0)
(1.0029156592846 -0.0059636847209096 0)
(1.0033294130912 -0.0063456699805991 0)
(1.0037686961033 -0.006719575003169 0)
(1.0042347600081 -0.0070871361980521 0)
(1.0047246946555 -0.0074440518642882 0)
(1.005241711326 -0.0077950160955546 0)
(1.0057797388119 -0.008131005755035 0)
(1.0063464506304 -0.0084638289876371 0)
(1.0069288173348 -0.0087738240198972 0)
(1.0075446101888 -0.0090890995518863 0)
(1.0081655868185 -0.0093654589986017 0)
(1.0088316586169 -0.0096681322869608 0)
(1.0094819333193 -0.0098965551812541 0)
(1.0102038264651 -0.010200698374771 0)
(1.0108671748326 -0.010351543592779 0)
(1.0116634525781 -0.010691796560338 0)
(1.0000003916107 -0.00025515543632815 0)
(1.0000305362601 -0.00077054719275243 0)
(1.0000894281092 -0.0012847399025241 0)
(1.0001778652854 -0.0017960205644794 0)
(1.0002960802856 -0.0023054612112752 0)
(1.0004439627803 -0.0028138847679705 0)
(1.0006211978238 -0.0033211421494339 0)
(1.0008276185077 -0.0038268676172313 0)
(1.0010631560623 -0.0043306901640983 0)
(1.001328081245 -0.0048323881816014 0)
(1.0016224789923 -0.0053311489691023 0)
(1.0019467108751 -0.0058262007157126 0)
(1.0023004437724 -0.006315960757774 0)
(1.0026839857507 -0.0067999012336004 0)
(1.0030963345053 -0.007276259896182 0)
(1.0035382228131 -0.0077457041832365 0)
(1.0040077041255 -0.0082055719549181 0)
(1.0045068065344 -0.0086582629460061 0)
(1.0050315894868 -0.0090982398063034 0)
(1.0055869482418 -0.0095317054411005 0)
(1.0061644169463 -0.0099468862371999 0)
(1.006775373295 -0.010359266197783 0)
(1.0074013249928 -0.010743145145291 0)
(1.0080682854611 -0.011135302188006 0)
(1.0087357757672 -0.01147790911747 0)
(1.0094618737418 -0.01185618980363 0)
(1.0101588491423 -0.012138608917624 0)
(1.0109535906891 -0.012521043346997 0)
(1.0116580021205 -0.012704301171096 0)
(1.0125498443668 -0.013135874153591 0)
(1.0000003576817 -0.00029967685517518 0)
(1.0000321438162 -0.00090718353835316 0)
(1.0000944440676 -0.0015135699370749 0)
(1.0001880710803 -0.0021163077070784 0)
(1.0003132213657 -0.0027165648343489 0)
(1.0004697285761 -0.0033152781573536 0)
(1.0006572145045 -0.0039124717219437 0)
(1.0008755358376 -0.0045081957983848 0)
(1.0011246968401 -0.0051025446191673 0)
(1.0014051696232 -0.0056956171160492 0)
(1.0017171863358 -0.0062864893476263 0)
(1.0020613659124 -0.0068740743291214 0)
(1.0024373981546 -0.0074561687105389 0)
(1.0028458507 -0.0080319543298043 0)
(1.0032855274588 -0.0085991586017072 0)
(1.0037575963393 -0.0091587186450409 0)
(1.0042596087854 -0.0097074007503766 0)
(1.0047945235137 -0.010248416529335 0)
(1.005357218871 -0.010774837915944 0)
(1.0059545841671 -0.011294633552441 0)
(1.0065753793666 -0.011792870674835 0)
(1.0072353386167 -0.012289288650154 0)
(1.0079096132961 -0.012751228866983 0)
(1.0086338654777 -0.013225475979596 0)
(1.0093533693511 -0.013638471481042 0)
(1.0101473963222 -0.014098464443045 0)
(1.0108970048773 -0.014438204686721 0)
(1.0117749904069 -0.014906388691876 0)
(1.0125260254899 -0.015123060977091 0)
(1.0135279764851 -0.015656166346659 0)
(1.000000313441 -0.00034366630010185 0)
(1.0000336729629 -0.0010430538057068 0)
(1.0000992859077 -0.001741525894015 0)
(1.0001979773033 -0.0024355506730547 0)
(1.0003299050816 -0.0031263595286835 0)
(1.0004948459208 -0.0038149960902364 0)
(1.0006923589836 -0.0045017403102881 0)
(1.0009223382478 -0.0051872487659011 0)
(1.0011848822762 -0.0058722896901074 0)
(1.0014807040733 -0.0065574272332508 0)
(1.0018102167838 -0.0072416468619798 0)
(1.0021743474459 -0.0079234891353627 0)
(1.0025728303779 -0.0086000092569529 0)
(1.0030065486228 -0.0092700349989112 0)
(1.003474109165 -0.009930712914118 0)
(1.0039771984796 -0.010583318982841 0)
(1.0045128250709 -0.011224008912783 0)
(1.0050850318952 -0.011856970618974 0)
(1.0056873877119 -0.012473717839538 0)
(1.0063290755517 -0.013084269792313 0)
(1.0069957432261 -0.013670089088328 0)
(1.0077080974864 -0.014255808560252 0)
(1.0084341239362 -0.014800802013557 0)
(1.0092204446583 -0.01536332598983 0)
(1.0099962560221 -0.015851787895574 0)
(1.0108648027721 -0.016400787606759 0)
(1.0116719783919 -0.016802159484152 0)
(1.0126423135308 -0.017364988463255 0)
(1.0134449135161 -0.017616973763133 0)
(1.0145701632775 -0.018263613342976 0)
(1.000000257961 -0.00038687015183132 0)
(1.0000350302158 -0.001177409622882 0)
(1.0001036785724 -0.0019673753940579 0)
(1.0002070373161 -0.0027520454174018 0)
(1.0003452241571 -0.0035326830679565 0)
(1.0005179597401 -0.004310433970431 0)
(1.0007247435051 -0.0050859215950925 0)
(1.0009655217341 -0.00586060584566 0)
(1.0012405095948 -0.0066361446779338 0)
(1.0015507001465 -0.0074137187438984 0)
(1.0018967223294 -0.0081922491551084 0)
(1.0022798621227 -0.0089698523380102 0)
(1.0026999242168 -0.0097427257587136 0)
(1.0031581645708 -0.010509285375304 0)
(1.0036529990595 -0.011266030004396 0)
(1.0041867169986 -0.012014651892177 0)
(1.0047557581324 -0.012750658613745 0)
(1.0053653987015 -0.013479391433051 0)
(1.0060077964069 -0.014190633172415 0)
(1.006694709531 -0.014896759794159 0)
(1.0074083878858 -0.015575162757337 0)
(1.0081750772951 -0.016256048084203 0)
(1.0089548956789 -0.016889756249027 0)
(1.0098066042843 -0.017547573432887 0)
(1.0106417305029 -0.018117430160409 0)
(1.0115899459409 -0.018763808602905 0)
(1.0124585606484 -0.019232112534449 0)
(1.013528889198 -0.019899825232354 0)
(1.014387356987 -0.020190057806804 0)
(1.0156475066259 -0.020963886112993 0)
(1.0000001906944 -0.00042896890813337 0)
(1.000036128089 -0.00130928198782 0)
(1.0001073624034 -0.0021895078407382 0)
(1.0002147334139 -0.0030635541897085 0)
(1.0003583183762 -0.0039326863518174 0)
(1.0005377843905 -0.0047981490551577 0)
(1.0007525760354 -0.005660999616381 0)
(1.0010027071745 -0.0065237000615977 0)
(1.0012885318714 -0.0073890158731654 0)
(1.0016113599646 -0.0082588983865255 0)
(1.001972070774 -0.0091322369300091 0)
(1.0023723575688 -0.010006679429604 0)
(1.0028121249234 -0.01087745936346 0)
(1.0032930578913 -0.011742530660091 0)
(1.0038133966118 -0.012597686613032 0)
(1.0043761143421 -0.013445118423631 0)
(1.0049770738544 -0.014279655563376 0)
(1.0056229225707 -0.015107975448501 0)
(1.0063043392512 -0.015917964073956 0)
(1.00703590802 -0.016724668322511 0)
(1.0077962635902 -0.017500946376617 0)
(1.0086176807338 -0.018283267531697 0)
(1.0094518485765 -0.019011868663603 0)
(1.0103706756948 -0.019772650397558 0)
(1.0112667240403 -0.020430579835383 0)
(1.0122981386269 -0.021183646170968 0)
(1.0132309088633 -0.021725159156445 0)
(1.0144072054421 -0.022509228870169 0)
(1.0153251753791 -0.022841825939978 0)
(1.0167299957557 -0.023758005563835 0)
(1.0000001115849 -0.00046960605706204 0)
(1.0000368879948 -0.0014375688335365 0)
(1.0001101022887 -0.0024060799223228 0)
(1.0002205959467 -0.0033675079295397 0)
(1.0003684066472 -0.0043230913818445 0)
(1.0005531513215 -0.0052741721810959 0)
(1.0007742260588 -0.0062223323196649 0)
(1.0010317261222 -0.0071712311818072 0)
(1.0013261661679 -0.0081249570918435 0)
(1.0016592041295 -0.0090863846382441 0)
(1.0020320039551 -0.010054411592166 0)
(1.0024467073245 -0.01102617993444 0)
(1.0029033537055 -0.011995870211018 0)
(1.003404104736 -0.012960929077843 0)
(1.0039470553989 -0.013916405797392 0)
(1.0045359288943 -0.014865067960814 0)
(1.0051660322476 -0.01580106070702 0)
(1.0058454909228 -0.016732565108306 0)
(1.00656349367 -0.017645442874417 0)
(1.0073376345797 -0.018557691835821 0)
(1.0081428307315 -0.019437248351575 0)
(1.0090177335823 -0.020327446348766 0)
(1.0099052684198 -0.021157495811095 0)
(1.010891210857 -0.022029324207322 0)
(1.0118482873837 -0.02278265082139 0)
(1.0129646129176 -0.023652438871289 0)
(1.0139629436021 -0.024274341666904 0)
(1.0152492335786 -0.025187289873373 0)
(1.0162295402553 -0.025567645489987 0)
(1.0177866384552 -0.026642523338118 0)
(1.0000000207997 -0.00050841441695917 0)
(1.0000372431399 -0.0015611155434891 0)
(1.0001116958654 -0.0026151501056009 0)
(1.0002242192538 -0.0036611935039997 0)
(1.0003748149008 -0.0047004301834984 0)
(1.0005630520865 -0.0057342973409326 0)
(1.0007882856005 -0.0067649905035477 0)
(1.0010507017692 -0.0077975524571929 0)
(1.0013509975224 -0.0088376026443823 0)
(1.0016911999002 -0.0098890849099616 0)
(1.0020727943867 -0.010950954674522 0)
(1.002498395291 -0.012019815472894 0)
(1.0029682269011 -0.013088731666778 0)
(1.0034849466561 -0.014154595419631 0)
(1.004046573599 -0.015211709283753 0)
(1.0046575922511 -0.016263466333669 0)
(1.0053128556966 -0.01730338104232 0)
(1.0060219643582 -0.018341237313591 0)
(1.0067727714399 -0.019360862331779 0)
(1.0075858319221 -0.020383340745763 0)
(1.0084326052833 -0.021371537507101 0)
(1.0093579457539 -0.022375925958344 0)
(1.0102964577649 -0.023314272032388 0)
(1.0113474644388 -0.024305257307759 0)
(1.0123643373771 -0.025161975616714 0)
(1.0135651009063 -0.0261587952306 0)
(1.0146291251955 -0.02686928119607 0)
(1.0160272086913 -0.027924273466203 0)
(1.0170718209629 -0.028359322483213 0)
(1.0187861993743 -0.029610144724671 0)
(0.99999991922675 -0.00054504078157783 0)
(1.0000371418897 -0.0016787917239036 0)
(1.0001119820917 -0.0028148058180503 0)
(1.0002252784519 -0.0039419286264122 0)
(1.0003770017975 -0.0050612649855623 0)
(1.0005666752859 -0.0061743460034388 0)
(1.0007936200714 -0.0072840651912402 0)
(1.0010581173416 -0.0083970212715817 0)
(1.0013610670863 -0.0095205602508159 0)
(1.0017048730916 -0.010659831647492 0)
(1.0020913822053 -0.011813904468406 0)
(1.0025236824282 -0.012978817526562 0)
(1.0030022532315 -0.014146483349574 0)
(1.0035302222409 -0.015313189262089 0)
(1.0041056641137 -0.01647253307075 0)
(1.0047337323722 -0.017628536601202 0)
(1.0054090859469 -0.018774230043312 0)
(1.006142551107 -0.019920975321636 0)
(1.0069211777761 -0.021050760593715 0)
(1.0077678561521 -0.022187613997047 0)
(1.0086517502678 -0.023289651615193 0)
(1.0096223362809 -0.024413997256148 0)
(1.010608605581 -0.025467970361873 0)
(1.0117195378496 -0.026585231960679 0)
(1.0127951413947 -0.027555109904603 0)
(1.014075354961 -0.028687451334977 0)
(1.0152063329359 -0.029497525139909 0)
(1.0167130722658 -0.030706418423795 0)
(1.0178237578944 -0.031204525469103 0)
(1.0196993512386 -0.032650372002152 0)
(0.99999980806442 -0.00057916710514799 0)
(1.000036552747 -0.0017895597147344 0)
(1.0001108564209 -0.0030032780788032 0)
(1.0002235555567 -0.0042072203028679 0)
(1.0003745940676 -0.0054023881459898 0)
(1.000563450481 -0.0065904066539053 0)
(1.0007894188015 -0.007774944602174 0)
(1.0010528779109 -0.0089643135321037 0)
(1.00135494378 -0.01016776222626 0)
(1.0016984002163 -0.011391773151174 0)
(1.0020854804738 -0.012635583694744 0)
(1.0025197471235 -0.013894658623125 0)
(1.0030019840439 -0.015159731996728 0)
(1.0035357763558 -0.016426465790891 0)
(1.0041193542606 -0.017687786405332 0)
(1.0047584781541 -0.01894838373303 0)
(1.0054478252541 -0.020200923149568 0)
(1.0061992487063 -0.021458355303831 0)
(1.0069994520787 -0.022701025522279 0)
(1.007873150176 -0.023955759797421 0)
(1.0087881576832 -0.025176278204482 0)
(1.0097974120671 -0.026425977412588 0)
(1.0108262719114 -0.027602341117758 0)
(1.0119905908778 -0.028853175324125 0)
(1.0131219331303 -0.029945641212938 0)
(1.0144740610524 -0.031221591024336 0)
(1.0156746098129 -0.032145457270347 0)
(1.0172772130902 -0.033513217986269 0)
(1.0184700739941 -0.034098643505613 0)
(1.0204924444239 -0.035747563504416 0)
(0.99999968887505 -0.00061052215661916 0)
(1.0000354611452 -0.0018925106334947 0)
(1.0001082708127 -0.0031790053872533 0)
(1.0002189448365 -0.0044548613656706 0)
(1.0003673986458 -0.0057209552078719 0)
(1.0005530684148 -0.0069790051894212 0)
(1.0007752257678 -0.008233522803999 0)
(1.0010343495295 -0.0094946696730245 0)
(1.0013317751546 -0.010773750458154 0)
(1.0016706669723 -0.012078695455413 0)
(1.0020536514708 -0.013408963271374 0)
(1.0024847697135 -0.014759450180637 0)
(1.0029651290279 -0.016119696723398 0)
(1.003498783812 -0.017484744637813 0)
(1.0040841586684 -0.018846875993894 0)
(1.0047276375178 -0.020211526243858 0)
(1.0054239834195 -0.021571063906846 0)
(1.0061860869409 -0.022940141964837 0)
(1.007000423756 -0.024297511362867 0)
(1.0078935140547 -0.025672908188949 0)
(1.0088320351591 -0.027015670956632 0)
(1.0098722983728 -0.028395613903629 0)
(1.0109363802512 -0.029700284105483 0)
(1.0121468226238 -0.031092018663097 0)
(1.0133272645451 -0.032315182288419 0)
(1.0147449244871 -0.033744815127528 0)
(1.0160098562133 -0.034792699674293 0)
(1.0177031815241 -0.036332153071476 0)
(1.0189754948612 -0.037017071601202 0)
(1.021141129406 -0.038885191276 0)
(0.99999956324939 -0.00063889009429293 0)
(1.0000338706689 -0.0019868924321601 0)
(1.0001042244399 -0.0033406848596402 0)
(1.0002114306139 -0.0046830059032782 0)
(1.0003553739104 -0.0060145851337907 0)
(1.0005354503312 -0.0073372308117337 0)
(1.0007509121065 -0.008656352840757 0)
(1.00100233711 -0.0099840766554791 0)
(1.0012912752647 -0.011333890406254 0)
(1.0016212632413 -0.01271526992199 0)
(1.0019953149472 -0.014127946265636 0)
(1.0024179460369 -0.015566262559906 0)
(1.0028905925214 -0.017018568718114 0)
(1.0034177856624 -0.018479303782565 0)
(1.0039981660535 -0.019940146977243 0)
(1.0046387591718 -0.021407353665248 0)
(1.0053344541557 -0.022873077939041 0)
(1.0060992050084 -0.024353776904862 0)
(1.0069193282232 -0.025826684029446 0)
(1.0078231789896 -0.027324552371188 0)
(1.0087764199801 -0.028792386072094 0)
(1.0098387459951 -0.030306568432882 0)
(1.0109291796511 -0.03174466347763 0)
(1.0121768770057 -0.033283834559639 0)
(1.0133979718549 -0.034645334751479 0)
(1.0148728751665 -0.036237999142163 0)
(1.0161948490056 -0.037420112654202 0)
(1.0179718783767 -0.039143656891425 0)
(1.0193185180904 -0.039940473769358 0)
(1.021621371582 -0.042043786011098 0)
(0.99999943355703 -0.00066411961847435 0)
(1.0000317989573 -0.0020721443829602 0)
(1.0000987573615 -0.0034873286924798 0)
(1.0002010820451 -0.0048902436926912 0)
(1.0003386224673 -0.0062814503668897 0)
(1.0005107360375 -0.0076628406385111 0)
(1.0007166571467 -0.0090407658913844 0)
(1.0009570575575 -0.010429403597623 0)
(1.0012336898842 -0.011844525835423 0)
(1.0015504454415 -0.013297232417397 0)
(1.0019107078656 -0.014787574862293 0)
(1.0023194520522 -0.016309365856525 0)
(1.0027784368681 -0.017849783657576 0)
(1.003292668656 -0.019402693421878 0)
(1.0038610142745 -0.020959223947787 0)
(1.0044911485576 -0.022526522839441 0)
(1.0051781129201 -0.024096618571778 0)
(1.0059369381101 -0.025687866903038 0)
(1.0067538345654 -0.027276080341991 0)
(1.0076590101629 -0.028897127435531 0)
(1.008617218605 -0.030491771724534 0)
(1.0096915463863 -0.032143090274597 0)
(1.0107981726836 -0.033718713081108 0)
(1.012072801375 -0.035410842255812 0)
(1.013324491379 -0.036917488914828 0)
(1.0148465399568 -0.038681679797325 0)
(1.0162162831849 -0.040007727199299 0)
(1.0180678239015 -0.041927054095835 0)
(1.0194813565691 -0.042848353684419 0)
(1.0219126262338 -0.045201569220432 0)
(0.99999930154557 -0.00068612674972782 0)
(1.0000292775756 -0.0021479081459127 0)
(1.0000919509535 -0.0036182853580121 0)
(1.0001880478381 -0.0050756315426766 0)
(1.0003173792238 -0.0065203179251462 0)
(1.0004792648012 -0.0079543108621583 0)
(1.0006729211101 -0.0093849335782911 0)
(1.0008991040176 -0.010828476692323 0)
(1.0011597506349 -0.012303068806492 0)
(1.0014590789777 -0.013821490785617 0)
(1.0018008158557 -0.015384159907004 0)
(1.00219036764 -0.01698438539695 0)
(1.0026298006655 -0.018608208746423 0)
(1.0031245816631 -0.020248955559785 0)
(1.0036738054459 -0.02189726743115 0)
(1.0042857890782 -0.023561248469686 0)
(1.0049557413581 -0.025232897634273 0)
(1.0056997649163 -0.026932550750021 0)
(1.006504002284 -0.028634717370721 0)
(1.0074005139851 -0.030378464321064 0)
(1.0083532286966 -0.032100454520124 0)
(1.0094286213067 -0.033890553653835 0)
(1.0105402111663 -0.035606589268922 0)
(1.0118301905216 -0.037455966877765 0)
(1.01310097253 -0.039113484642887 0)
(1.0146584473005 -0.04105662527611 0)
(1.0160649246334 -0.04253559489502 0)
(1.0179798377265 -0.04466150392218 0)
(1.0194506043803 -0.045719588678588 0)
(1.0219986342257 -0.048335736920828 0)
(0.99999916978265 -0.00070489125608693 0)
(1.0000263468991 -0.0022140210415956 0)
(1.0000839158406 -0.0037332327456923 0)
(1.0001725416236 -0.0052386905873722 0)
(1.0002919910598 -0.0067305539656208 0)
(1.0004415448571 -0.008210847977004 0)
(1.0006204027807 -0.0096878853549986 0)
(1.0008293898348 -0.011180103162472 0)
(1.0010706062739 -0.012708034070379 0)
(1.0013485553043 -0.014286173073515 0)
(1.0016672752258 -0.015915348569333 0)
(1.0020325597209 -0.017588391307093 0)
(1.0024467678313 -0.019290261965921 0)
(1.0029157907088 -0.021013775182893 0)
(1.0034389563283 -0.022749166528688 0)
(1.0040251850325 -0.024505535177292 0)
(1.0046698735753 -0.02627496677743 0)
(1.0053901493593 -0.028079822958721 0)
(1.0061721339314 -0.029893469365287 0)
(1.0070496941805 -0.031758213518168 0)
(1.007986029608 -0.033606822059178 0)
(1.0090509374592 -0.03553600053187 0)
(1.0101554916711 -0.037393961107967 0)
(1.0114481699465 -0.039403494787776 0)
(1.0127253349649 -0.041216185850873 0)
(1.0143049026298 -0.043344508935927 0)
(1.015735518733 -0.044984266566407 0)
(1.0177009057965 -0.047326877416233 0)
(1.0192173514191 -0.048533633258315 0)
(1.0218681148276 -0.051424117929218 0)
(0.99999903976883 -0.00072044937219708 0)
(1.0000230503493 -0.0022704946864483 0)
(1.0000747756109 -0.0038321422112696 0)
(1.0001548079414 -0.0053793562602068 0)
(1.0002628709944 -0.0069120670541279 0)
(1.0003982008523 -0.0084323378489708 0)
(1.0005599792093 -0.0099494711560851 0)
(1.0007490751376 -0.011484046032954 0)
(1.0009677320609 -0.013059022001689 0)
(1.0012206791377 -0.014690616357521 0)
(1.0015122409895 -0.01638012532044 0)
(1.001848525528 -0.018119915318867 0)
(1.0022321910815 -0.019893957238543 0)
(1.0026694723198 -0.021694552271914 0)
(1.0031599789552 -0.023511654999395 0)
(1.0037131135636 -0.025355324893616 0)
(1.0043245531037 -0.02721792656995 0)
(1.0050122682841 -0.029123778778417 0)
(1.0057625328405 -0.031045396121151 0)
(1.0066107578404 -0.033028217460115 0)
(1.0075197582827 -0.035001480803688 0)
(1.0085621847111 -0.037068669449714 0)
(1.0096474117286 -0.039068596799863 0)
(1.0109291721937 -0.041239792438384 0)
(1.0121992990596 -0.04321018980926 0)
(1.0137859563471 -0.045528481284649 0)
(1.0152264025657 -0.047335289179415 0)
(1.01722760687 -0.049903418748279 0)
(1.0187760177699 -0.051271011782326 0)
(1.0215143109571 -0.054445663029292 0)
(0.99999891272859 -0.00073288775846706 0)
(1.0000194336102 -0.0023174964735986 0)
(1.0000646624784 -0.0039152391741426 0)
(1.0001351074984 -0.005497898814683 0)
(1.0002304535418 -0.0070651715747964 0)
(1.0003498953551 -0.0086191529934128 0)
(1.0004926108352 -0.010170132841218 0)
(1.0006594712975 -0.011740784618154 0)
(1.0008528351275 -0.013356479650476 0)
(1.0010775604732 -0.01503512543183 0)
(1.0013382549011 -0.016778557451152 0)
(1.0016412239414 -0.01857867141647 0)
(1.0019894957988 -0.020418598712589 0)
(1.0023894776875 -0.022290059483034 0)
(1.0028412322578 -0.024182943499225 0)
(1.0033543230602 -0.026108073805832 0)
(1.003925037794 -0.028058470573463 0)
(1.0045716252618 -0.030060056418697 0)
(1.0052811686361 -0.032085137608957 0)
(1.0060896537148 -0.034181746311205 0)
(1.0069607614402 -0.03627644410419 0)
(1.007968289253 -0.03847892121547 0)
(1.0090221628692 -0.04061932064518 0)
(1.0102785582754 -0.042951733700524 0)
(1.0115281337011 -0.045080679218536 0)
(1.0131056206663 -0.047591094158681 0)
(1.0145401560521 -0.049569079742914 0)
(1.0165596485962 -0.052367714449388 0)
(1.0181235846186 -0.053907198116336 0)
(1.0209330382447 -0.057370553609276 0)
(0.9999987864509 -0.00074235720673197 0)
(1.0000155611757 -0.0023553699278136 0)
(1.0000537683209 -0.0039830102543335 0)
(1.0001138081415 -0.0055949101959004 0)
(1.0001953060582 -0.007190534413059 0)
(1.0002974193983 -0.0087720014159781 0)
(1.0004193745115 -0.01035057981677 0)
(1.0005620198955 -0.011950975916222 0)
(1.000727802789 -0.013600953607918 0)
(1.0009215588635 -0.015320057927772 0)
(1.0011481865378 -0.017110741943003 0)
(1.0014140065782 -0.018964385341657 0)
(1.0017225849193 -0.020863473509261 0)
(1.0020802044959 -0.022798971540544 0)
(1.0024877755926 -0.024761034667058 0)
(1.0029543573378 -0.026760814553053 0)
(1.0034776647302 -0.028792672428761 0)
(1.0040748691363 -0.030883268572196 0)
(1.0047356150454 -0.033006033705911 0)
(1.005493871187 -0.035210018495322 0)
(1.0063176620319 -0.037421319611352 0)
(1.0072771557176 -0.039753368795099 0)
(1.0082890856533 -0.042030760845578 0)
(1.0095039686647 -0.04452004371815 0)
(1.0107217483566 -0.046805798782654 0)
(1.0122706539593 -0.049506762024714 0)
(1.0136883022537 -0.05165485465751 0)
(1.0157003828286 -0.05468567741348 0)
(1.0172685017174 -0.056394245751788 0)
(1.0201150299538 -0.060146116653657 0)
(0.99999866324288 -0.00074914744017044 0)
(1.000011586747 -0.0023848684888334 0)
(1.0000424517662 -0.0040365194594214 0)
(1.000091516474 -0.0056716823521579 0)
(1.0001583258419 -0.0072897026816952 0)
(1.0002420181637 -0.0088927101784458 0)
(1.0003419012414 -0.01049282676929 0)
(1.0004587463409 -0.012116616325936 0)
(1.0005950547338 -0.013794195078749 0)
(1.0007554884389 -0.015546771443899 0)
(1.0009452762218 -0.017377580743265 0)
(1.0011705845721 -0.019277528586315 0)
(1.0014357521353 -0.0212286924166 0)
(1.0017465750925 -0.023221030936945 0)
(1.0021053384043 -0.025245293157913 0)
(1.0025196347686 -0.027312290557481 0)
(1.002989890297 -0.029418674896365 0)
(1.0035299980767 -0.031590464626827 0)
(1.0041353164832 -0.03380447269713 0)
(1.0048328953545 -0.036107703099181 0)
(1.0056022189366 -0.038430314473529 0)
(1.0064993090622 -0.040883392012909 0)
(1.0074626085517 -0.043294065434052 0)
(1.0086155951944 -0.045931692985763 0)
(1.0097975845997 -0.048371854748472 0)
(1.0112884802307 -0.051258859099999 0)
(1.0126950179727 -0.053572684717216 0)
(1.0146565546647 -0.05684606574601 0)
(1.0162517639568 -0.058696963314508 0)
(1.0190692649367 -0.062798424652008 0)
(0.99999853705765 -0.00075381722119942 0)
(1.0000077490475 -0.002407674184912 0)
(1.0000312632033 -0.0040784230471979 0)
(1.0000689476685 -0.0057317982428807 0)
(1.0001202960184 -0.0073672771692558 0)
(1.0001846783421 -0.0089872008751157 0)
(1.0002616112155 -0.010604483743273 0)
(1.0003516272739 -0.012247287353863 0)
(1.0004570212707 -0.013947866491124 0)
(1.0005820795018 -0.015729011853158 0)
(1.0007323794143 -0.017594883408109 0)
(1.000913978243 -0.019536127073178 0)
(1.0011322208538 -0.021534804289664 0)
(1.0013923656259 -0.023579833395786 0)
(1.0016983112397 -0.02566300868388 0)
(1.0020555213997 -0.027794228532387 0)
(1.0024678086201 -0.029973575078898 0)
(1.0029440537922 -0.032224921830249 0)
(1.0034879104749 -0.034531685468446 0)
(1.0041149627611 -0.036934605238641 0)
(1.0048235961272 -0.039375793279394 0)
(1.0056434465246 -0.041952880444608 0)
(1.0065539807379 -0.044513319957306 0)
(1.0076204913824 -0.047305346670625 0)
(1.0087696713244 -0.049928375569343 0)
(1.010157791857 -0.053016439606876 0)
(1.0115768029931 -0.055532361262209 0)
(1.0134107416977 -0.059105137600251 0)
(1.0151296621972 -0.061118061938819 0)
(1.0178175085248 -0.065877981731513 0)
(0.99999839120752 -0.00075771502835056 0)
(1.0000034438543 -0.0024282012475017 0)
(1.0000195198625 -0.0041172988879974 0)
(1.0000454943997 -0.005788944412162 0)
(1.0000807456994 -0.007442540697483 0)
(1.0001251495441 -0.0090805059853438 0)
(1.0001788234826 -0.010716536859799 0)
(1.0002422105314 -0.012380554354531 0)
(1.0003172074418 -0.014107492640099 0)
(1.0004076709427 -0.015921659028786 0)
(1.0005188713129 -0.017828066158469 0)
(1.0006566149499 -0.019816858900617 0)
(1.0008270292205 -0.021869812803732 0)
(1.0010352045506 -0.023974737823658 0)
(1.0012864059186 -0.026124811088556 0)
(1.0015848135007 -0.02832930416547 0)
(1.0019367633125 -0.030592617141935 0)
(1.0023474002151 -0.032935854695086 0)
(1.0028267089752 -0.035351175352643 0)