/*--------------------------------*- C++ -*----------------------------------*\
| =========                 |                                                 |
| \\      /  F ield         | OpenFOAM: The Open Source CFD Toolbox           |
|  \\    /   O peration     | Version:  2112                                  |
|   \\  /    A nd           | Website:  www.openfoam.com                      |
|    \\/     M anipulation  |                                                 |
\*---------------------------------------------------------------------------*/
FoamFile
{
    version     2.0;
    format      ascii;
    arch        "LSB;label=32;scalar=64";
    class       volVectorField;
    location    "16.5";
    object      U;
}
// * * * * * * * * * * * * * * * * * * * * * * * * * * * * * * * * * * * * * //

dimensions      [0 1 -1 0 0 0 0];

internalField   nonuniform List<vector> 
22000
(
(1.0000011142621 -2.7234322433297e-05 0)
(1.0000281925486 -8.095149574456e-05 0)
(1.0000797548935 -0.00013397683569797 0)
(1.0001567836141 -0.00018665041910623 0)
(1.0002596712559 -0.00023911855993865 0)
(1.0003883383871 -0.00029136141894631 0)
(1.0005424796481 -0.00034329356512275 0)
(1.0007217736604 -0.00039485184387315 0)
(1.0009259649976 -0.00044599897691234 0)
(1.0011548692903 -0.00049673413820204 0)
(1.0014083117697 -0.00054703624032657 0)
(1.0016861205739 -0.00059691484218914 0)
(1.0019880819699 -0.00064632098027165 0)
(1.0023139981074 -0.00069528411906262 0)
(1.0026636125792 -0.00074370348257974 0)
(1.0030367232249 -0.00079166152385258 0)
(1.0034330136278 -0.00083894225362117 0)
(1.0038522881555 -0.00088576303521057 0)
(1.0042941206413 -0.00093166122355366 0)
(1.004758352382 -0.00097718869775492 0)
(1.0052443622178 -0.0010213362365853 0)
(1.00575211166 -0.0010654570514194 0)
(1.0062806369702 -0.0011073136084519 0)
(1.0068302197333 -0.0011501396290864 0)
(1.0073992830803 -0.0011888754560131 0)
(1.0079888438041 -0.0012310716649693 0)
(1.0085961575614 -0.0012651203161561 0)
(1.00922376491 -0.0013084597485121 0)
(1.0098666329506 -0.0013343760476813 0)
(1.0105303701867 -0.0013830414293425 0)
(1.0000005387968 -8.0008468798119e-05 0)
(1.0000274237815 -0.00023795123135835 0)
(1.0000788680214 -0.00039399045013857 0)
(1.0001558009624 -0.00054910014617038 0)
(1.0002586850061 -0.00070368989855402 0)
(1.0003875220444 -0.00085768646096496 0)
(1.0005420553022 -0.0010108302565731 0)
(1.0007219924802 -0.0011629327432946 0)
(1.0009270853482 -0.001313884470909 0)
(1.0011571707204 -0.0014636830938006 0)
(1.0014120771056 -0.0016122680395247 0)
(1.0016916729793 -0.001759668832449 0)
(1.0019957408402 -0.0019057465684743 0)
(1.0023241539043 -0.0020505892618531 0)
(1.0026766225195 -0.0021939065848575 0)
(1.0030530698953 -0.002335935353474 0)
(1.0034530713165 -0.0024760492949655 0)
(1.0038766689516 -0.0026148706365494 0)
(1.0043231619678 -0.0027510631787671 0)
(1.004792875024 -0.0028862081760072 0)
(1.0052845513341 -0.0030174024809162 0)
(1.0057991704194 -0.0031485193949652 0)
(1.0063343492387 -0.0032731473031612 0)
(1.0068925447858 -0.0034005248674952 0)
(1.0074690670972 -0.0035162078846666 0)
(1.0080696093422 -0.0036417086814166 0)
(1.0086846722803 -0.0037440062587591 0)
(1.0093268785076 -0.0038726187169368 0)
(1.009976699418 -0.0039518353500318 0)
(1.0106615026084 -0.0040953112257641 0)
(1.0000005697637 -0.00013017002407585 0)
(1.000028120727 -0.00038715924415184 0)
(1.0000806891758 -0.00064113691026771 0)
(1.0001590950005 -0.00089374287245563 0)
(1.0002637516668 -0.0011456518591864 0)
(1.0003946778682 -0.0013967290846849 0)
(1.0005516509726 -0.0016465383300876 0)
(1.0007344224338 -0.0018947726263106 0)
(1.0009427674664 -0.0021412597071051 0)
(1.0011765658873 -0.0023860065738442 0)
(1.0014356584481 -0.0026289230587678 0)
(1.0017199807017 -0.0028700751722674 0)
(1.0020293156364 -0.003109247367532 0)
(1.0023636534475 -0.0033466059315965 0)
(1.0027226613202 -0.0035816744944194 0)
(1.0031064670291 -0.0038148616387677 0)
(1.0035144837078 -0.004045118438783 0)
(1.0039471392555 -0.0042735017417048 0)
(1.0044033003776 -0.0044977702298823 0)
(1.0048840813153 -0.0047206012350875 0)
(1.0053871937849 -0.0049371205273181 0)
(1.0059153046938 -0.0051538636846479 0)
(1.0064636660603 -0.0053600514061991 0)
(1.007038410562 -0.0055712318301983 0)
(1.0076295157948 -0.0057631142156779 0)
(1.0082507602309 -0.0059718548426804 0)
(1.0088807331019 -0.0061419633557095 0)
(1.0095499736332 -0.0063566031687347 0)
(1.0102125976782 -0.0064886774344275 0)
(1.010935947201 -0.0067289136434167 0)
(1.000000591334 -0.00017855324244356 0)
(1.0000287591327 -0.0005307981640008 0)
(1.0000824172526 -0.00087878363814987 0)
(1.0001623573679 -0.0012249551724795 0)
(1.0002689810205 -0.001570322524912 0)
(1.0004023223642 -0.0019147112850334 0)
(1.0005621792234 -0.0022575177054872 0)
(1.000748345871 -0.0025983321076707 0)
(1.0009606248038 -0.002936937817876 0)
(1.0011989575005 -0.0032733743151296 0)
(1.0014632045787 -0.0036075425224606 0)
(1.0017533980041 -0.0039395763297931 0)
(1.0020693235256 -0.004269205316374 0)
(1.0024111381709 -0.0045967080906255 0)
(1.0027784520981 -0.0049214248426937 0)
(1.003171684671 -0.0052439678731646 0)
(1.0035900268632 -0.0055628393618864 0)
(1.0040344536642 -0.0058795860508613 0)
(1.0045032319073 -0.0061909970850571 0)
(1.0049985898489 -0.0065009677012163 0)
(1.005516801251 -0.0068025022603654 0)
(1.0060629063678 -0.0071050564402624 0)
(1.0066288544542 -0.0073931220347017 0)
(1.0072259353718 -0.007689100939535 0)
(1.0078366770646 -0.0079580188280271 0)
(1.0084861870241 -0.0082518710677969 0)
(1.0091364239668 -0.0084908337496366 0)
(1.0098430085852 -0.0087944002299136 0)
(1.0105233004526 -0.0089799789540245 0)
(1.0113005081167 -0.0093213900596181 0)
(1.0000006151318 -0.00022521856553858 0)
(1.0000293791798 -0.00066907283922482 0)
(1.0000840709912 -0.0011072826227084 0)
(1.0001654614522 -0.0015432357813029 0)
(1.0002739562577 -0.0019783559218398 0)
(1.0004096193435 -0.0024124601410552 0)
(1.0005722750297 -0.0028447926635521 0)
(1.0007617692212 -0.0032748627353268 0)
(1.0009779383962 -0.0037024327948785 0)
(1.0012208047162 -0.0041276039969213 0)
(1.0014902585954 -0.00455029430869 0)
(1.0017864594336 -0.0049707455470504 0)
(1.0021092026097 -0.0053886603227005 0)
(1.0024588626803 -0.005804474014177 0)
(1.0028349858617 -0.0062173471898821 0)
(1.0032383681033 -0.0066281380506137 0)
(1.0036679307896 -0.0070348659866926 0)
(1.0041253485371 -0.0074396397618624 0)
(1.0046081461892 -0.0078381943375144 0)
(1.0051199650615 -0.0082358006739249 0)
(1.0056552884448 -0.0086231436623024 0)
(1.0062221495481 -0.0090129342604955 0)
(1.0068083750233 -0.0093844636700718 0)
(1.0074317337727 -0.0097676999229582 0)
(1.0080654500442 -0.010115899774773 0)
(1.008748822091 -0.010498463834765 0)
(1.0094230453552 -0.010808824686736 0)
(1.0101750835408 -0.011206313968699 0)
(1.0108764338285 -0.011447552142291 0)
(1.0117199683615 -0.011897282098094 0)
(1.0000006398133 -0.00027012124008151 0)
(1.0000299079312 -0.0008018227784812 0)
(1.0000854335075 -0.0013263588691158 0)
(1.0001679586044 -0.0018482202839668 0)
(1.0002778973922 -0.0023693281852909 0)
(1.0004153560047 -0.0028895195332257 0)
(1.0005801959147 -0.0034079001943023 0)
(1.0007723284788 -0.0039239217184833 0)
(1.0009916344981 -0.0044373523554362 0)
(1.0012382369513 -0.0049483885147963 0)
(1.0015120681161 -0.0054569952933939 0)
(1.0018134461757 -0.00596356898477 0)
(1.0021421871003 -0.0064678182696431 0)
(1.0024989329229 -0.0069703875391512 0)
(1.0028831661821 -0.0074702638550466 0)
(1.0032961399873 -0.0079686012439186 0)
(1.0037364726616 -0.008462899849061 0)
(1.0042066781526 -0.008955914533387 0)
(1.0047034264054 -0.009442232516597 0)
(1.0052320378398 -0.0099286815788264 0)
(1.0057849151561 -0.010403405946174 0)
(1.0063736235987 -0.010882752802296 0)
(1.0069811842379 -0.011340283951584 0)
(1.0076329737819 -0.011814338369085 0)
(1.008291361981 -0.012245186733424 0)
(1.0090122537657 -0.012721395775876 0)
(1.0097126271827 -0.013106953792944 0)
(1.0105160359484 -0.013604957062439 0)
(1.011240550456 -0.013905308694143 0)
(1.0121602248244 -0.014472399732841 0)
(1.0000006629608 -0.00031311936494701 0)
(1.0000302493329 -0.00092859842381382 0)
(1.0000862286769 -0.0015352460966739 0)
(1.0001693088308 -0.0021388341400257 0)
(1.0002799182928 -0.0027418719618823 0)
(1.0004182170643 -0.003344245392728 0)
(1.0005841140728 -0.0039449355802642 0)
(1.0007775995413 -0.0045433617088979 0)
(1.0009986093377 -0.0051393277471787 0)
(1.0012473864842 -0.0057331631587681 0)
(1.001523918204 -0.0063249147809571 0)
(1.0018287116083 -0.0069151859499036 0)
(1.0021616175495 -0.007503730299837 0)
(1.0025235931395 -0.0080914604654878 0)
(1.002914064802 -0.0086772008853096 0)
(1.0033348170782 -0.0092624578065026 0)
(1.0037841470966 -0.0098441785366073 0)
(1.0042655317042 -0.010425855755107 0)
(1.0047747058777 -0.011000836902345 0)
(1.005318895609 -0.011577698692897 0)
(1.005888204321 -0.012141821947719 0)
(1.0064981741621 -0.012713586677902 0)
(1.007126493714 -0.013260287089263 0)
(1.007807059359 -0.013829459767757 0)
(1.0084901813059 -0.014347147822816 0)
(1.0092502894576 -0.014922877342928 0)
(1.0099774629606 -0.01538844383384 0)
(1.0108359703756 -0.015994686052139 0)
(1.0115846123186 -0.016358781861549 0)
(1.0125876251208 -0.017053576222276 0)
(1.0000006829592 -0.00035399099183608 0)
(1.000030316692 -0.0010487201160183 0)
(1.0000862049929 -0.0017327975121856 0)
(1.0001690187989 -0.0024134625727903 0)
(1.0002792065213 -0.0030939091177548 0)
(1.0004169921485 -0.0037741037078933 0)
(1.0005823416663 -0.0044529188638216 0)
(1.0007753370881 -0.0051297699426999 0)
(1.0009959805024 -0.0058045304197957 0)
(1.0012446528865 -0.0064777046120832 0)
(1.0015214100331 -0.0071494601077289 0)
(1.0018269755517 -0.0078206645711918 0)
(1.002161251872 -0.0084911610753689 0)
(1.0025255543514 -0.0091621948062618 0)
(1.0029192678315 -0.0098324445871738 0)
(1.0033447737069 -0.010503829457311 0)
(1.0038000463134 -0.011172717684267 0)
(1.0042896289074 -0.01184343424969 0)
(1.0048082780081 -0.012508005923871 0)
(1.0053653050902 -0.013176949299756 0)
(1.0059483756766 -0.013832678061984 0)
(1.0065773463906 -0.014499988786318 0)
(1.0072242229503 -0.01513940592407 0)
(1.0079320863936 -0.015808447889465 0)
(1.0086383708886 -0.016417765356048 0)
(1.0094373952767 -0.017099526038663 0)
(1.0101905110903 -0.017650760682269 0)
(1.0111055853675 -0.018373761023437 0)
(1.0118781855529 -0.018807385192923 0)
(1.0129689798369 -0.019641111242422 0)
(1.0000006977891 -0.00039245993109613 0)
(1.0000300353029 -0.0011613534267718 0)
(1.0000851550173 -0.0019176172489111 0)
(1.0001666804954 -0.0026701475391319 0)
(1.0002750819924 -0.0034229204709892 0)
(1.0004106558452 -0.0041760165935563 0)
(1.0005734339675 -0.0049282175584128 0)
(1.0007636015632 -0.0056789653864844 0)
(1.0009812380622 -0.0064282396030015 0)
(1.0012268789423 -0.0071767641251813 0)
(1.0015006629633 -0.0079248706357477 0)
(1.0018035543092 -0.0086737520100872 0)
(1.0021355255681 -0.0094233908165635 0)
(1.0024982869386 -0.010175432179189 0)
(1.0028912025632 -0.010928433884724 0)
(1.0033173039511 -0.011684789777649 0)
(1.0037742581186 -0.012440274972079 0)
(1.0042677535155 -0.013200138445852 0)
(1.0047915646905 -0.013955027042441 0)
(1.0053572138565 -0.014717573733136 0)
(1.0059498790099 -0.015467062944332 0)
(1.006593945798 -0.016233047980592 0)
(1.0072555813121 -0.016968867232174 0)
(1.0079874426161 -0.017742693386998 0)
(1.0087136963945 -0.018448806648897 0)
(1.0095493022867 -0.019243432036419 0)
(1.010325985313 -0.019886680429563 0)
(1.0112967466929 -0.020735392899843 0)
(1.0120919814894 -0.021245448490044 0)
(1.0132721008405 -0.022229744553209 0)
(1.000000706269 -0.00042822282524031 0)
(1.0000293446759 -0.001265591077599 0)
(1.0000829063678 -0.0020881983345215 0)
(1.0001619542445 -0.002906783292787 0)
(1.0002669792363 -0.0037262001969829 0)
(1.0003983565746 -0.0045466761490596 0)
(1.0005561924221 -0.0053669202227131 0)
(1.0007407845809 -0.0061864319981864 0)
(1.0009522988425 -0.0070053346968944 0)
(1.0011914369973 -0.007824617309303 0)
(1.001458434092 -0.0086448218368987 0)
(1.001754514554 -0.0094675290863386 0)
(1.0020797413561 -0.010292917025284 0)
(1.0024362476706 -0.011123099439491 0)
(1.0028234034504 -0.011956546931868 0)
(1.0032449281203 -0.012796188805251 0)
(1.003698213671 -0.013637209778584 0)
(1.0041901427623 -0.014485865784582 0)
(1.0047135461997 -0.01533139671381 0)
(1.0052822201386 -0.016188700231788 0)
(1.005878900014 -0.017033834020116 0)
(1.0065325797309 -0.017901373334165 0)
(1.0072036409518 -0.01873719033303 0)
(1.0079544084443 -0.019620602448499 0)
(1.0086958455015 -0.020428837648621 0)
(1.0095636515334 -0.021343171780289 0)
(1.0103600096521 -0.022085295035516 0)
(1.0113831684537 -0.023068737452453 0)
(1.0121985366555 -0.023663185659286 0)
(1.0134665177708 -0.024809607157187 0)
(1.0000007070772 -0.00046097963577985 0)
(1.0000281980307 -0.0013605450216886 0)
(1.0000793279571 -0.0022430734802811 0)
(1.0001545828463 -0.0031213222792207 0)
(1.0002544714802 -0.0040011137957221 0)
(1.0003794523154 -0.0048828522982146 0)
(1.000529712276 -0.0057651926053068 0)
(1.000705668139 -0.0066477224204758 0)
(1.000907579073 -0.0075307466984079 0)
(1.0011363202433 -0.0084155641159263 0)
(1.0013922333576 -0.009302974655583 0)
(1.0016768143857 -0.010195008816655 0)
(1.0019902366978 -0.011092100474978 0)
(1.0023350748706 -0.01199689981401 0)
(1.0027107363784 -0.0129078350208 0)
(1.0031216482416 -0.013828427159503 0)
(1.0035649759022 -0.014753294648535 0)
(1.004048811319 -0.01568976827218 0)
(1.0045651217599 -0.016625696235897 0)
(1.0051299720414 -0.01757834693783 0)
(1.0057237977188 -0.018520540737457 0)
(1.00638013497 -0.01949203395451 0)
(1.0070538488764 -0.020431137518186 0)
(1.0078167123367 -0.021428553275057 0)
(1.0085670171327 -0.022344178359855 0)
(1.0094606251562 -0.023384759784155 0)
(1.0102712711974 -0.024232949895703 0)
(1.0113411128603 -0.025359823185466 0)
(1.0121729101364 -0.026047595311183 0)
(1.0135242277452 -0.027367116603452 0)
(1.0000006994668 -0.00049045725181114 0)
(1.0000265650853 -0.0014454157015592 0)
(1.0000743352929 -0.0023809288535023 0)
(1.0001444028394 -0.0033119331668187 0)
(1.0002372892083 -0.0042453007877453 0)
(1.0003535374007 -0.0051816405807925 0)
(1.0004934191718 -0.0061195707124701 0)
(1.0006574726341 -0.007058795943714 0)
(1.0008460542291 -0.0079998401439357 0)
(1.0010602138306 -0.008944354000854 0)
(1.0013004074742 -0.0098934438212837 0)
(1.0015684057516 -0.010849648375442 0)
(1.0018645097053 -0.011813721285562 0)
(1.002191739865 -0.012788912374413 0)
(1.0025495765135 -0.013773663541956 0)
(1.0029431542695 -0.014772136473578 0)
(1.0033694755602 -0.015778432714102 0)
(1.0038378199668 -0.016801004464802 0)
(1.0043394118086 -0.017826374910435 0)
(1.0048925073453 -0.018874233248464 0)
(1.0054754804842 -0.019914259301167 0)
(1.0061261953335 -0.020991413894277 0)
(1.0067944832994 -0.022036582493566 0)
(1.0075610297564 -0.02315177614723 0)
(1.0083124513689 -0.024179784819056 0)
(1.0092235259478 -0.025352534612478 0)
(1.0100416224516 -0.026314118859777 0)
(1.0111500447389 -0.027592426460569 0)
(1.011993340332 -0.028383306989129 0)
(1.0134204180473 -0.029885827255598 0)
(1.0000006826488 -0.0005164275912362 0)
(1.0000244327669 -0.0015195448501035 0)
(1.0000678954326 -0.0025006913004924 0)
(1.0001313516766 -0.003477123012513 0)
(1.0002153293471 -0.0044568324464664 0)
(1.0003204545831 -0.005440656199951 0)
(1.0004470850164 -0.0064271918822022 0)
(1.0005958778926 -0.0074162872813963 0)
(1.0007672870995 -0.0084087201687405 0)
(1.0009625319924 -0.0094065314127647 0)
(1.0011821867994 -0.010411181292427 0)
(1.0014282904661 -0.011425770343372 0)
(1.0017012864566 -0.012451438516461 0)
(1.0020046312997 -0.01349209109837 0)
(1.0023379132699 -0.01454625082847 0)
(1.0027069521359 -0.015618757205599 0)
(1.0031086639351 -0.016703272679336 0)
(1.0035534564006 -0.017809390303176 0)
(1.0040319684492 -0.018922433907498 0)
(1.0045644978114 -0.020064495158439 0)
(1.0051276846779 -0.02120233492961 0)
(1.0057633601842 -0.022385980116874 0)
(1.0064170063266 -0.023539296619581 0)
(1.0071773834153 -0.024775158557865 0)
(1.0079208659587 -0.025920061280102 0)
(1.0088392636325 -0.027229984385335 0)
(1.0096565935282 -0.028312221354296 0)
(1.0107932071019 -0.02974889971324 0)
(1.0116418256212 -0.030653379826463 0)
(1.0131341266712 -0.03234724562047 0)
(1.0000006565246 -0.00053872054694928 0)
(1.0000218054492 -0.0015824536064074 0)
(1.0000600240487 -0.0026015908628397 0)
(1.0001154640831 -0.0036158244157732 0)
(1.0001886512413 -0.0046343245012998 0)
(1.0002802900279 -0.0056581731536099 0)
(1.0003908221584 -0.0066859613125186 0)
(1.0005210169634 -0.0077177016560059 0)
(1.0006714217724 -0.0087544574401958 0)
(1.0008434132589 -0.0097986920945086 0)
(1.0010376831748 -0.010852265356544 0)
(1.0012565226931 -0.011918885723452 0)
(1.0015005285452 -0.013000147333653 0)
(1.0017735685498 -0.014100657209994 0)
(1.0020753736005 -0.015219096914965 0)
(1.0024124020936 -0.016361005629367 0)
(1.0027815684328 -0.017519713505596 0)
(1.0031943116549 -0.018705941441019 0)
(1.003640874451 -0.019904003948074 0)
(1.0041433764399 -0.021138298301248 0)
(1.004677130478 -0.022373025966632 0)
(1.005287436952 -0.02366295843553 0)
(1.0059162921083 -0.024925648416141 0)
(1.0066594141877 -0.026283971547383 0)
(1.0073847592933 -0.027549597948786 0)
(1.0082987131939 -0.029000505964573 0)
(1.0091057789806 -0.030210376369382 0)
(1.010258069792 -0.031810946443867 0)
(1.0111045882726 -0.032840048372402 0)
(1.0126487872108 -0.034731607509829 0)
(1.0000006209168 -0.00055723217082542 0)
(1.0000187033088 -0.0016338652767265 0)
(1.0000507842104 -0.0026831975116198 0)
(1.0000968672187 -0.0037274468506648 0)
(1.0001574665968 -0.0047770039837438 0)
(1.0002333578268 -0.0058332080061567 0)
(1.0003250615139 -0.0068946540614682 0)
(1.0004334473195 -0.0079615364460072 0)
(1.0005591478883 -0.0090352311169889 0)
(1.000703678141 -0.010118649208834 0)
(1.0008678417965 -0.011214091932549 0)
(1.0010541562038 -0.012325912651375 0)
(1.0012633772616 -0.013456227215414 0)
(1.0014997446203 -0.014610378760306 0)
(1.0017631638532 -0.015787295718206 0)
(1.0020606632209 -0.016993221138051 0)
(1.0023892446537 -0.018221288647116 0)
(1.0027612442291 -0.019483296462315 0)
(1.0031667214798 -0.020762805931548 0)
(1.0036293348567 -0.022086337616242 0)
(1.0041235404156 -0.023416038534923 0)
(1.004697488302 -0.024810906062125 0)
(1.0052907005481 -0.026183205758429 0)
(1.0060044972905 -0.027664507971131 0)
(1.0067005622315 -0.029053828188573 0)
(1.0075969147475 -0.030648094518563 0)
(1.0083830682608 -0.031992090582355 0)
(1.0095366233637 -0.033760340653975 0)
(1.0103723851292 -0.03492541358827 0)
(1.01195261604 -0.037018612964338 0)
(1.0000005763534 -0.00057192776796342 0)
(1.0000151612035 -0.0016737144220058 0)
(1.0000402784156 -0.0027454351517123 0)
(1.0000757670297 -0.0038118951567948 0)
(1.0001221190949 -0.0048847333036405 0)
(1.0001801708321 -0.005965551173981 0)
(1.0002505137029 -0.0070529554314301 0)
(1.0003341012709 -0.0081473328940103 0)
(1.0004316391646 -0.009250393922005 0)
(1.0005447551952 -0.010365514302152 0)
(1.0006743546905 -0.011495473966998 0)
(1.0008231456915 -0.012645297247906 0)
(1.0009920433943 -0.013817686867548 0)
(1.0011856057224 -0.01501874284571 0)
(1.001403940571 -0.016247736184896 0)
(1.0016545566342 -0.017511599095926 0)
(1.0019346339711 -0.018803431654163 0)
(1.0022572384123 -0.02013601985817 0)
(1.0026124728783 -0.021492491158014 0)
(1.0030251961152 -0.022901218742207 0)
(1.0034695236967 -0.024322944522189 0)
(1.0039957357621 -0.025820171980339 0)
(1.0045420025515 -0.027301229374074 0)
(1.0052136970075 -0.028904620072654 0)
(1.005868620825 -0.030419591907842 0)
(1.0067331071554 -0.032157953233847 0)
(1.0074867144686 -0.03364187524288 0)
(1.0086255013467 -0.035579586832537 0)
(1.0094406573795 -0.036892071796328 0)
(1.0110388236279 -0.039188108473665 0)
(1.0000005231747 -0.00058284120434495 0)
(1.0000112259219 -0.0017021419477591 0)
(1.0000286430185 -0.0027885748382583 0)
(1.0000524361127 -0.0038695599677952 0)
(1.0000830618304 -0.0049579993966394 0)
(1.0001214057735 -0.0060557554227484 0)
(1.0001681196161 -0.0071614494013806 0)
(1.0002242206119 -0.0082756657383072 0)
(1.0002904709163 -0.0094004648475109 0)
(1.0003685803043 -0.010539695736367 0)
(1.00045954072 -0.01169664823121 0)
(1.0005662075927 -0.012877032829961 0)
(1.000689649412 -0.014084199646562 0)
(1.0008346763374 -0.015325012610916 0)
(1.001001619333 -0.01659918422336 0)
(1.0011983602695 -0.017914303295313 0)
(1.0014223444195 -0.019263619495863 0)
(1.0016871735901 -0.020660782493305 0)
(1.0019832258331 -0.022088858105209 0)
(1.0023361760936 -0.023577719875502 0)
(1.002720340442 -0.025087481992756 0)
(1.0031873323892 -0.026683246019479 0)
(1.003675161414 -0.028271055425428 0)
(1.0042915672993 -0.02999415212076 0)
(1.0048930187944 -0.031635594962746 0)
(1.0057105827572 -0.033517012979722 0)
(1.0064192300157 -0.035145784127483 0)
(1.0075259368228 -0.037252527758619 0)
(1.0083095255984 -0.038723694874771 0)
(1.0099056562598 -0.041220733131092 0)
(1.0000004626136 -0.0005900717853233 0)
(1.0000069502551 -0.001719478275822 0)
(1.0000160489347 -0.002813186626946 0)
(1.0000272052352 -0.0039012599676647 0)
(1.0000408377922 -0.0049978468470119 0)
(1.0000578694984 -0.0061050627660961 0)
(1.0000790000399 -0.0072215435394483 0)
(1.0001052871928 -0.0083480695763341 0)
(1.0001375297179 -0.0094870591257809 0)
(1.000177484074 -0.010642833853164 0)
(1.0002262087051 -0.011819216379288 0)
(1.0002866570916 -0.013022608414099 0)
(1.0003600384275 -0.014257060075199 0)
(1.0004513407277 -0.015530195879407 0)
(1.0005611296809 -0.016842265238673 0)
(1.000697540404 -0.018201470051746 0)
(1.0008583601333 -0.0196013984073 0)
(1.0010575150758 -0.021056420155243 0)
(1.0012858833016 -0.022549938582124 0)
(1.0015695442818 -0.024112924665375 0)
(1.0018835562766 -0.02570572340788 0)
(1.0022800199737 -0.027394989731813 0)
(1.0026979976423 -0.029086360071993 0)
(1.0032458232245 -0.030925271497509 0)
(1.0037812548488 -0.032692755142991 0)
(1.0045363748326 -0.034714344202666 0)
(1.0051871011289 -0.036491840143647 0)
(1.0062435234321 -0.038764877168154 0)
(1.006983629759 -0.04040557388931 0)
(1.0085562934171 -0.043098565552815 0)
(1.0000003945459 -0.0005937699404566 0)
(1.0000024009267 -0.0017262235556534 0)
(1.0000026581143 -0.0028201668629533 0)
(1.0000004114913 -0.0039082500528487 0)
(0.99999602016673 -0.0050058656696573 0)
(0.99999042982342 -0.0061153698281905 0)
(0.99998437355215 -0.007235409535746 0)
(0.99997892480207 -0.0083669550603874 0)
(0.99997489689181 -0.0095127841355752 0)
(0.99997405535032 -0.01067768253865 0)
(0.99997749999903 -0.011866018611679 0)
(0.99998822898654 -0.013084880732634 0)
(1.0000075704919 -0.014339058390532 0)
(1.0000406124109 -0.015636927472331 0)
(1.0000881536182 -0.016979354943146 0)
(1.0001584604979 -0.018375115895128 0)
(1.000249717405 -0.019818304376962 0)
(1.0003759631113 -0.021323882486985 0)
(1.0005287700249 -0.022875958067018 0)
(1.0007342148284 -0.024506225520139 0)
(1.0009686031612 -0.026176086050936 0)
(1.0012836800105 -0.027952723125445 0)
(1.001620733125 -0.029743256933865 0)
(1.0020869029873 -0.031692687034067 0)
(1.0025438223722 -0.033584410671554 0)
(1.0032208246094 -0.03574147386431 0)
(1.0038003412032 -0.037670287464469 0)
(1.0047877457568 -0.040104578034191 0)
(1.0054717441378 -0.041925045226531 0)
(1.0069985751377 -0.044805712914092 0)
(1.0000003216182 -0.00059413682607402 0)
(0.9999976319857 -0.0017230179933612 0)
(0.99998866340402 -0.0028105938734971 0)
(0.99997243112786 -0.0038920704485452 0)
(0.99994923011472 -0.0049840419195315 0)
(0.99992001280109 -0.0060890829600915 0)
(0.99988553110756 -0.0072058454116264 0)
(0.99984684885112 -0.008335476743422 0)
(0.99980477142799 -0.0094811103940303 0)
(0.99976103439767 -0.010647980115855 0)
(0.99971675055666 -0.011841003924204 0)
(0.99967490750717 -0.013067941754281 0)
(0.99963692159747 -0.01433434705994 0)
(0.99960790291267 -0.015649334991814 0)
(0.99958886302109 -0.017014447665 0)
(0.99958808829413 -0.018439013569579 0)
(0.99960417744725 -0.019917747429972 0)
(0.99965110071321 -0.021466143520888 0)
(0.99972124312873 -0.023069252150599 0)
(0.99984033803748 -0.024759290243905 0)
(0.99998631414226 -0.026499268183072 0)
(1.000209844888 -0.028356249524566 0)
(1.0004554324221 -0.030240231869711 0)
(1.0008274199782 -0.032293792934519 0)
(1.001193662413 -0.034306329965728 0)
(1.0017771093908 -0.036592749472393 0)
(1.0022720248785 -0.038673633425564 0)
(1.0031713486946 -0.041262002843734 0)
(1.0037861045013 -0.043271368664999 0)
(1.0052444369889 -0.046328364738178 0)
(1.000000242699 -0.00059139761810091 0)
(0.99999269424841 -0.0017105769328438 0)
(0.99997421660166 -0.0027857185995754 0)
(0.99994359333485 -0.0038545031810143 0)
(0.99990104369478 -0.0049346816796712 0)
(0.9998475062189 -0.0060290187766373 0)
(0.99978373559395 -0.0071361596626983 0)
(0.99971075701959 -0.0082574030658508 0)
(0.99962934718143 -0.0093962317087516 0)
(0.99954117040077 -0.010558306436457 0)
(0.99944733011563 -0.011749099449763 0)
(0.99935074121497 -0.012977007846454 0)
(0.99925287596547 -0.014248362143383 0)
(0.99915877958071 -0.015572985437492 0)
(0.9990696479031 -0.016953139144552 0)
(0.99899367994214 -0.0183986941667 0)
(0.99892987549723 -0.019905049414067 0)
(0.99889199928032 -0.02148825884366 0)
(0.99887326638707 -0.023134359880599 0)
(0.99889886008645 -0.024876206209343 0)
(0.998948446609 -0.026678393312067 0)
(0.99907123343186 -0.028608115582808 0)
(0.99921541182056 -0.030578213323341 0)
(0.99948157965464 -0.032729036224274 0)
(0.9997453963178 -0.034856557084129 0)
(1.0002207000624 -0.037266114483556 0)
(1.0006179042351 -0.039496465114687 0)
(1.0014101133947 -0.042230998339197 0)
(1.0019419712906 -0.044434433860218 0)
(1.0033089386559 -0.047653373995078 0)
(1.0000001548074 -0.00058580601039184 0)
(0.99998762334867 -0.0016896866173771 0)
(0.99995944611491 -0.0027468562793416 0)
(0.99991418111076 -0.003797381553231 0)
(0.9998519644921 -0.0048601456749416 0)
(0.99977370106257 -0.005938082479173 0)
(0.99968014116316 -0.0070298107431553 0)
(0.99957223296028 -0.0081367253341272 0)
(0.99945069593634 -0.0092626491356263 0)
(0.99931706629507 -0.010413640700144 0)
(0.9991724436879 -0.011595742252567 0)
(0.99901959631151 -0.012817930730567 0)
(0.99886005222608 -0.014087343035146 0)
(0.99869865105489 -0.015414425876644 0)
(0.99853679122379 -0.016802234814954 0)
(0.99838239778604 -0.018261095175776 0)
(0.99823493791818 -0.019787192796058 0)
(0.99810773973561 -0.021397105543866 0)
(0.99799493966054 -0.023077862893854 0)
(0.99792092590558 -0.024863220222821 0)
(0.99786713868075 -0.026718839698828 0)
(0.9978811436302 -0.028713319383213 0)
(0.99791469426597 -0.030760214592024 0)
(0.99806463357023 -0.033001611043873 0)
(0.99821446027059 -0.035234220509894 0)
(0.99856860221438 -0.037763131638463 0)
(0.99885556665434 -0.040133259135233 0)
(0.99952359702922 -0.043011896996596 0)
(0.9999596470789 -0.045402057280043 0)
(1.0012101044475 -0.04876912776251 0)
(1.0000000524002 -0.00057767923072825 0)
(0.99998250870408 -0.00166134142497 0)
(0.99994459257571 -0.0026955757740402 0)
(0.99988459688605 -0.0037227162523596 0)
(0.99980256168417 -0.0047628338496776 0)
(0.99969938086617 -0.0058190720374775 0)
(0.99957583527518 -0.0068900151436421 0)
(0.99943274832165 -0.0079770133620338 0)
(0.99927072971829 -0.0090842696914465 0)
(0.99909110810644 -0.010218214988317 0)
(0.99889501026715 -0.011385462082396 0)
(0.99868495419564 -0.012595459975735 0)
(0.99846259557436 -0.013856220554438 0)
(0.9982323411601 -0.015178675618155 0)
(0.99799596059823 -0.016566876764995 0)
(0.99776070140004 -0.018031346232298 0)
(0.99752689471529 -0.019569416062868 0)
(0.99730672498841 -0.02119774402344 0)
(0.99709599481419 -0.022904855800131 0)
(0.99691714357322 -0.024724958825148 0)
(0.9967545832348 -0.026624978901131 0)
(0.99665262995117 -0.028675578442844 0)
(0.99656803897976 -0.030788758464459 0)
(0.9965922428327 -0.033114266957743 0)
(0.9966175192135 -0.035437615722722 0)
(0.99683839338925 -0.038087309600855 0)
(0.99700280207604 -0.040574736939312 0)
(0.99753364108283 -0.043618652893042 0)
(0.99786789905959 -0.046158945728362 0)
(0.99897417803612 -0.049702588565009 0)
(0.9999999080578 -0.00056748017411546 0)
(0.9999775088726 -0.0016270772397246 0)
(0.99993016464 -0.002634307273445 0)
(0.99985564410627 -0.0036335729240379 0)
(0.99975380082789 -0.0046461778490126 0)
(0.99962562903084 -0.0056755648722769 0)
(0.99947213931316 -0.0067204621234517 0)
(0.99929395185603 -0.007781662834533 0)
(0.99909139469826 -0.0088640532208344 0)
(0.99886559034345 -0.009974448612404 0)
(0.99861776537381 -0.011120029811738 0)
(0.99835006414348 -0.01231060033804 0)
(0.99806432334206 -0.013555112161824 0)
(0.99776423469325 -0.014864832812051 0)
(0.9974522131148 -0.016245133704897 0)
(0.99713426767764 -0.017706394541758 0)
(0.99681236910168 -0.019247886433288 0)
(0.9964962603531 -0.020885456073712 0)
(0.99618525156775 -0.022610800493634 0)
(0.99589687831398 -0.02445652491595 0)
(0.99562264794458 -0.026393879817185 0)
(0.99539734005377 -0.028492129808592 0)
(0.99519125211408 -0.030665552939197 0)
(0.9950783218196 -0.033070042653511 0)
(0.9949748355955 -0.035475231289725 0)
(0.99504514059817 -0.038255164656531 0)
(0.99507922791846 -0.04082970471428 0)
(0.99545104641723 -0.044107159951715 0)
(0.99569187266926 -0.046699603037728 0)
(0.99663260202354 -0.050666565718416 0)
(0.99999963776357 -0.0005563969877659 0)
(0.99997234066884 -0.0015903779883491 0)
(0.99991615356337 -0.0025692058956448 0)
(0.99982768276811 -0.0035392877722655 0)
(0.99970637882274 -0.0045230096389057 0)
(0.99955327714648 -0.0055236997734038 0)
(0.99937027678175 -0.0065408516156728 0)
(0.99915765666491 -0.0075734331454811 0)
(0.99891484013356 -0.0086278722032643 0)
(0.99864305725842 -0.0097112604061091 0)
(0.99834368549078 -0.010831423868498 0)
(0.998018491387 -0.011998658431917 0)
(0.9976694245801 -0.013223143005288 0)
(0.99729934209599 -0.014516635211634 0)
(0.99691127918147 -0.01588622624972 0)
(0.9965097317228 -0.017341890219158 0)