/*--------------------------------*- C++ -*----------------------------------*\
| =========                 |                                                 |
| \\      /  F ield         | OpenFOAM: The Open Source CFD Toolbox           |
|  \\    /   O peration     | Version:  2112                                  |
|   \\  /    A nd           | Website:  www.openfoam.com                      |
|    \\/     M anipulation  |                                                 |
\*---------------------------------------------------------------------------*/
FoamFile
{
    version     2.0;
    format      ascii;
    arch        "LSB;label=32;scalar=64";
    class       volScalarField;
    location    "10";
    object      p;
}
// * * * * * * * * * * * * * * * * * * * * * * * * * * * * * * * * * * * * * //

dimensions      [0 2 -2 0 0 0 0];

internalField   nonuniform List<scalar> 
22000
(
0.0036915258781254
0.0036698652807015
0.0036251372398559
0.0035561965425865
0.0034625304116675
0.0033441927287232
0.0032015016805786
0.0030348051576975
0.002844394007944
0.0026305157358768
0.0023934160832543
0.002133372788744
0.0018507047206127
0.0015457744965185
0.0012189774996826
0.00087074608714473
0.00050153451555782
0.00011183967186862
-0.00029782639813375
-0.00072688975761607
-0.0011747814965162
-0.0016408358177034
-0.0021244443400278
-0.0026248251053613
-0.0031413718125758
-0.0036731296170397
-0.0042195870969157
-0.0047794923580078
-0.0053526444399106
-0.0059372665489246
0.004098066654515
0.0040750763943953
0.0040285641400982
0.003957505949776
0.0038613641322732
0.0037401242529317
0.0035940503623602
0.0034234622715847
0.0032286396771885
0.0030098255656541
0.0027672608837348
0.0025012177207867
0.0022120071493761
0.0018999855660951
0.0015655411104577
0.001209104514535
0.00083112587054471
0.00043210755839064
1.2557345590455e-05
-0.00042693731494509
-0.00088581831769323
-0.0013633927025162
-0.001859079092623
-0.0023720395417968
-0.0029017332329164
-0.0034470916909981
-0.0040077637836178
-0.0045822820867079
-0.0051708304502031
-0.0057713019053598
0.0048455629057881
0.0048214923512627
0.004772892455983
0.0046987888827453
0.0045986783440571
0.0044725485646057
0.004320647284828
0.0041432754548872
0.0039406970313775
0.0037131430210645
0.0034608428925349
0.0031840584003365
0.0028830883159688
0.0025582795605177
0.0022100077315241
0.0018386983775804
0.0014447896971465
0.0010287878435358
0.00059118718861245
0.00013259487847018
-0.00034645292976752
-0.00084521322555205
-0.0013631518743477
-0.001899319787089
-0.0024532901109292
-0.0030237556194101
-0.0036106450680992
-0.0042120044782723
-0.0048287088561362
-0.0054578600703317
0.0058894093645725
0.0058640916387678
0.0058129755704555
0.0057350498033147
0.0056298014587138
0.0054972198517965
0.0053375505300338
0.0051510842822213
0.0049380676853237
0.0046987118640679
0.0044332245810045
0.0041418478596961
0.0038248586485977
0.0034825862805201
0.0031153838792502
0.0027236644792008
0.0023078433925344
0.0018684261136294
0.0014058812788887
0.0009208380869418
0.00041379451699638
-0.00011444060609846
-0.00066340837524148
-0.0012320062355311
-0.0018199808303128
-0.0024256918207965
-0.0030494914240448
-0.0036887535443724
-0.0043453964098602
-0.0050154329367978
0.0071916202899155
0.0071648475707896
0.007110786847318
0.0070283718527001
0.006917063939486
0.0067768436463654
0.0066079482524482
0.0064106528085459
0.0061851782503433
0.0059317047742075
0.0056504050220203
0.0053414874329199
0.0050051920470483
0.0046418163285195
0.0042516745137875
0.0038351530036071
0.0033926261297732
0.0029245867629848
0.0024314576064731
0.0019138839053653
0.0013723005498601
0.00080758877799206
0.00022009517532311
-0.00038889207181292
-0.0010193613446948
-0.0016692524654736
-0.0023394836310351
-0.0030265600629848
-0.0037337531093309
-0.0044556240505437
0.0087191963855679
0.0086908319814676
0.0086335474305843
0.0085462151040191
0.0084282635900777
0.0082796553559644
0.008100608028495
0.0078913681593739
0.0076521166260659
0.0073829869004697
0.0070840987978099
0.0067556085814281
0.0063976987700936
0.0060106144488685
0.0055946078388803
0.0051500175443886
0.0046771515038743
0.0041764703549195
0.0036483227026983
0.0030933555321965
0.0025119073519472
0.0019049297460597
0.0012726117461716
0.00061645204923537
-6.3853577586759e-05
-0.00076574338894449
-0.0014908457667478
-0.0022346046617373
-0.0030019574857305
-0.0037856734732824
0.010442582397615
0.010412577223605
0.010351964929413
0.010259551581219
0.01013472671217
0.0099774250037486
0.0097878311033454
0.0095661471890931
0.0093124960449423
0.0090269448633089
0.0087095389571555
0.0083603593944348
0.007979505489242
0.007567143666387
0.007123434572557
0.0066486407862087
0.0061429707975677
0.0056068251668427
0.0050404415335489
0.0044444450942117
0.0038190351231005
0.0031652217574193
0.0024829813080821
0.0017740371590325
0.0010376845941473
0.00027705717602087
-0.00051034001767241
-0.0013187134448584
-0.0021549937253159
-0.0030098468667366
0.012334447438478
0.012302839573299
0.012238970652264
0.012141577619292
0.012010005148475
0.011844149474269
0.01164414718403
0.011410137991394
0.011142165967309
0.010840209464127
0.010504214117447
0.010134158676742
0.0097300288171715
0.0092918805431623
0.0088197471884015
0.0083137801080491
0.0077740475979869
0.0072008537532657
0.0065942790998792
0.0059548933124888
0.0052827028061253
0.0045787524882487
0.0038427386540336
0.0030766108357133
0.002279166507635
0.001454166826086
0.00059808191388827
-0.00028189814473902
-0.001195036079308
-0.0021296148989548
0.014368909835224
0.01433582263253
0.014268940309318
0.014166930050414
0.014029086267356
0.013855255291909
0.013645509195156
0.013399905513912
0.013118387207043
0.012800819134676
0.012447019540128
0.012056834532531
0.011630101879577
0.011166730763374
0.01066658614722
0.010129666691325
0.0095558527404354
0.0089453073606602
0.0082978989115319
0.0076140974054127
0.0068936517275274
0.0061376048461133
0.0053452927043752
0.004518876037716
0.0036565433369842
0.0027627219226487
0.0018326676730733
0.00087510696794353
-0.0001219024782208
-0.0011440277474245
0.016521110486536
0.016486748283581
0.016417259677427
0.016311243513212
0.01616793908809
0.015987130945387
0.015768809534475
0.015512929913157
0.015219310981634
0.014887678610064
0.01451769472819
0.014109040570875
0.013661369345445
0.013174403668445
0.012647795255538
0.012081343494603
0.011474687424774
0.010827797213792
0.010140266400408
0.009412411241981
0.0086436491325235
0.0078349708119488
0.0069852606317854
0.0060968566436611
0.0051672134310018
0.004201432988329
0.0031933629905915
0.0021533717741822
0.0010664893811687
-5.0137075027159e-05
0.018767040794059
0.018731681740256
0.018660143843103
0.018550960662859
0.018403312067402
0.018216909281728
0.017991644628823
0.017727351123964
0.017423701539136
0.017080257834624
0.016696497142141
0.016271903218505
0.015805907599574
0.015298004819136
0.014747586825327
0.014154203339327
0.013517195459891
0.012836281840895
0.012110713439133
0.011340587932957
0.010524911346647
0.009664556093086
0.0087578613831675
0.0078072847247538
0.0068094297628514
0.0057700388800508
0.0046813638876264
0.0035554202559347
0.0023738297606563
0.0011566421620909
0.021083549445426
0.021047535484551
0.020974635156746
0.020863320971086
0.020712709947989
0.02052242973321
0.020292259890599
0.020021893965742
0.019710838913063
0.019358469890863
0.018964052975783
0.01852684317575
0.018046015129022
0.017520793756135
0.016950266006344
0.016333679085732
0.015670019952905
0.014958690467661
0.014198531209279
0.013389342017923
0.012529640458057
0.011620083259042
0.010658389471371
0.0096470102032539
0.008581660137726
0.0074685440924096
0.0062983855874952
0.0050845400936056
0.0038052709561133
0.0024827559524785
0.02344846529428
0.023412189819849
0.02333871966527
0.023226470439579
0.023074493640703
0.022882325474365
0.022649621497246
0.022375921930448
0.022060551945194
0.021702680584366
0.021301340471274
0.020855530024618
0.020364135641456
0.019826073686286
0.01924008452184
0.018605060307254
0.017919581353178
0.017182662375819
0.016392671849288
0.015549015087751
0.014649660487912
0.01369490520462
0.012681821595209
0.011612607223356
0.010482183817161
0.0092967408604479
0.0080458788665989
0.0067435219402396
0.0053653414055933
0.0039354734295278
0.02584079004747
0.025804681072814
0.025731509266241
0.025619636663264
0.025468047692984
0.025276182350464
0.025043564834208
0.024769572549883
0.024453337495067
0.024093808554924
0.023689767659969
0.023239934947607
0.022742882297467
0.022197185040278
0.021601199610933
0.02095341660879
0.020251959908998
0.019495391338158
0.018681544273064
0.017809338569559
0.016876116164679
0.015881697128841
0.014822406117099
0.013700059481051
0.012508627982228
0.011254202565523
0.0099250157306127
0.0085355081338048
0.0070590374243125
0.0055208054886887
0.028240927083553
0.028205432084652
0.02813346347299
0.028023340270418
0.027873983172486
0.027684734361701
0.027454982646155
0.027183937185663
0.026870530127113
0.02651348217806
0.026111313987587
0.025662453332672
0.025165138573814
0.024617580121885
0.024017719821082
0.023363610010752
0.022652872007327
0.021883561413601
0.021052909343118
0.020159277510468
0.01919928588574
0.018172187312167
0.017073425394821
0.015904335166001
0.014657752822445
0.01333957150143
0.011936404933788
0.010463120779611
0.0088903381207215
0.0072442071604944
0.030630868231118
0.030596438842249
0.030526585352972
0.030419599701181
0.030274346719843
0.030090072613104
0.02986603042355
0.029601260755229
0.029294495712392
0.028944226560237
0.028548709035362
0.028106072541696
0.027614211944083
0.027070958594968
0.026473819243751
0.025820381620968
0.025107728726377
0.024333366394306
0.023493865883217
0.022586965088466
0.021608474510146
0.020556989756644
0.019426947950436
0.018219092393018
0.01692495342192
0.015550096671879
0.014079273907358
0.012527602010949
0.010862547731123
0.0091107526009207
0.032994356946853
0.032961434131569
0.032894587899022
0.032792102148462
0.032652797014506
0.032475827804669
0.032260315317301
0.032005136108793
0.031708828053115
0.031369659328566
0.030985626125172
0.030554562377849
0.030074018751814
0.02954144392898
0.028953900701696
0.028308498479819
0.027601758738983
0.026830607727455
0.025990911412825
0.025079731637401
0.024091991753581
0.023025549096239
0.021873711612106
0.020636519042167
0.019304020908551
0.017881327351629
0.016351088020564
0.014728496121806
0.012977381672197
0.01112429969319
0.035317016320443
0.035286017618533
0.035223025545975
0.035126337282636
0.034994742278769
0.034827313216759
0.034623045935886
0.034380662111759
0.03409851720645
0.033774669378913
0.033406868633418
0.032992665747297
0.03252927791536
0.032013778328965
0.031442789192514
0.030812940773823
0.030120184485749
0.029360852589836
0.028530075831711
0.027624205689789
0.026637215426076
0.025566163443117
0.02440311303296
0.023147299723745
0.021787092788861
0.020327009528007
0.018747326915759
0.017063219834126
0.015234398896601
0.013286778954566
0.03758642088725
0.037557731801941
0.037499375240071
0.037409683248561
0.037287430845526
0.037131621047769
0.036941137721627
0.036714561315138
0.036450080848851
0.036145562241676
0.035798530160209
0.035406272668572
0.034965695301501
0.034473514128861
0.033925929170674
0.033319102347218
0.032648424157593
0.031909631388932
0.031097110356706
0.030206482248275
0.029230729542233
0.028166073094006
0.027003241621218
0.025740607593959
0.024364658654814
0.02287918332043
0.021261646170267
0.019527075390189
0.017630525715523
0.015597145293247
0.039792102541147
0.03976607454257
0.039713061233332
0.03963144600262
0.039520005278863
0.039377690080951
0.039203291854401
0.038995269051173
0.038751665468062
0.038470177023768
0.038148130796125
0.037782578762213
0.037370146765115
0.03690721865198
0.036389606444576
0.035813023706313
0.035172334399767
0.034462685115735
0.033677743990984
0.032812381775102
0.031858592826482
0.03081171269555
0.029661094695418
0.028404211799171
0.027025567629695
0.025528205107913
0.023886303586211
0.022114346470653
0.020161400184522
0.018051960591939
0.041925492387674
0.041902441498539
0.041855405199016
0.041782824589171
0.041683492444868
0.04155632985424
0.041400058126276
0.041213032424234
0.040993174350092
0.04073803714757
0.040444788039072
0.040110278153113
0.039730899533925
0.039302734827185
0.038821258463535
0.038281754688135
0.03767862456736
0.037006422136609
0.036258182031899
0.035427978213696
0.034506924544584
0.03348934479987
0.032363324315949
0.031125220774409
0.02975767236473
0.028262943091464
0.026612129111504
0.024819141468596
0.022824742792662
0.02065045512282
0.043979834527828
0.043960005881327
0.043919472502002
0.043856741005026
0.043770638641025
0.043660072420785
0.043523711383868
0.043359826954712
0.043166243040974
0.042940395755608
0.042679328913111
0.042379725848853
0.042037798435612
0.04164936881352
0.041209654344123
0.040713535924759
0.040155054196474
0.039528142607155
0.038825358295058
0.038039855064563
0.037162144313332
0.03618524450492
0.035096425543692
0.033890316850422
0.032548172784791
0.031070659299673
0.029426480027252
0.027630492111161
0.025615011249963
0.02339619560759
0.045950178036662
0.045933634367713
0.045899851919635
0.045847470032454
0.045775424660088
0.045682605289025
0.045567590570468
0.045428559512236
0.045263279098066
0.04506912214627
0.044843058342913
0.044581629874756
0.044280895237396
0.04393642196586
0.043543235100682
0.043095833287622
0.042588038353827
0.042013123923568
0.041363412908761
0.040630891092529
0.039805962091005
0.038879654472788
0.037839565169244
0.036677014027028
0.035374079779815
0.033926098506661
0.032301994672477
0.030512305308973
0.028489429579345
0.026253716159839
0.04783355864015
0.047820126731679
0.047792844141531
0.047750668145926
0.047692767398511
0.047618087335812
0.047525092165006
0.047411779410635
0.047275812953631
0.047114536816931
0.046924927809452
0.046703465261332
0.046446137766953
0.046148303511369
0.045804792721012
0.04540966056162
0.044956509153623
0.044437851508569
0.043845930713666
0.043171298266945
0.042404763949984
0.041534428338554
0.040549841053649
0.03943615967662
0.038181409089988
0.036767480743423
0.035175804800373
0.033385348333471
0.031347099045181
0.029056210720975
0.049629451578611
0.04961920098426
0.049598065909834
0.049565888603144
0.049521850681842
0.049464975080332
0.049393818366807
0.049306390005204
0.049200316168847
0.049072838761774
0.048920795297324
0.048740572021433
0.048528227193422
0.048279204862842
0.047988376344725
0.047649488101519
0.047255866084888
0.046799229232684
0.046271605306105
0.045662207626477
0.044962320840725
0.044157276088953
0.043239111786796
0.042185993352462
0.040994759200679
0.039629269385671
0.038099554039004
0.036332865684881
0.034336472330596
0.031868892909204
-0.0064969902838373
-0.007029297855279
-0.0075696671447255
-0.0081170038300246
-0.0086703617030872
-0.0092289847541657
-0.0097922105042893
-0.010359374553923
-0.010929777535574
-0.011502691140665
-0.01207737231938
-0.012653075121497
-0.013229057687111
-0.013804584751653
-0.014378929157367
-0.014951374319566
-0.015521215978197
-0.016087762883419
-0.016650338272412
-0.017208281919097
-0.017760951841148
-0.018307723014654
-0.018847984185454
-0.019381129458376
-0.019906559288102
-0.020423773585724
-0.020932504172455
-0.021432315920169
-0.021922720469433
-0.022403271986934
-0.022873592688814
-0.023333358779717
-0.023782285730138
-0.024220115859385
-0.024646620388988
-0.025061591500786
-0.025464854066534
-0.025856246986433
-0.026235649206532
-0.026602936397121
-0.026958042383718
-0.027300862548594
-0.027631396424435
-0.027949529690553
-0.028255360163477
-0.028548706658839
-0.028829852475735
-0.029098444921786
-0.029355186106904
-0.029599438630478
-0.0063432940893571
-0.0068842560632094
-0.0074342485188445
-0.0079912729864061
-0.0085540237799149
-0.0091218494766693
-0.0096943312284631
-0.010270980058148
-0.010851172977055
-0.011434197397561
-0.012019303809587
-0.012605739254911
-0.013192757997784
-0.013779618166142
-0.014365578629859
-0.014949900376451
-0.015531848071355
-0.016110691224642
-0.016685707362642
-0.017256187267433
-0.017821439763565
-0.018380797898414
-0.0189336286328
-0.01947935164889
-0.020017450743588
-0.020547370170954
-0.02106834490524
-0.021579853562187
-0.022081489713308
-0.02257286800791
-0.023053609639866
-0.023523353918104
-0.023981774974807
-0.024428579852956
-0.024863517533297
-0.025286363547921
-0.025696939243439
-0.026095078657007
-0.026480674311309
-0.026853603926087
-0.027213836542676
-0.027561269374925
-0.027895967752251
-0.028217798854889
-0.02852697252149
-0.028823218289035
-0.029106996777042
-0.029377641677705
-0.029636019275689
-0.02988029802589
-0.0060549730426805
-0.0066185604535482
-0.0071934677748549
-0.0077756141092218
-0.0083627121939684
-0.008954149752183
-0.0095498888851278
-0.010149708276647
-0.01075306142038
-0.011359199840244
-0.011967306902292
-0.012576576011945
-0.013186229185465
-0.013795501603689
-0.014403628371752
-0.015009843685613
-0.015613382157096
-0.01621347992472
-0.016809380377813
-0.01740034245646
-0.017985646036979
-0.018564592733957
-0.019136504829524
-0.019700719539713
-0.020256580739407
-0.020803460228305
-0.021340835312012
-0.021868192505152
-0.022385055889192
-0.022890989807487
-0.023385597897296
-0.023868518229627
-0.024339433129697
-0.024798061168491
-0.025244173185933
-0.025677567772801
-0.026098104643351
-0.026505649778821
-0.026900153353445
-0.027281528597573
-0.02764982934351
-0.028004978642274
-0.028347169809981
-0.028676255922042
-0.028992654728191
-0.029295965400126
-0.02958699554631
-0.029864578903344
-0.030129982355075
-0.030379300608393
-0.0056499027922773
-0.0062490910861045
-0.0068626685352497
-0.0074832527181257
-0.0081071011405189
-0.0087337303511416
-0.0093637240594077
-0.0099972812797916
-0.010633974800724
-0.011273010388651
-0.01191348828322
-0.012554546339262
-0.013195387366026
-0.013835243463404
-0.014473346206138
-0.015108921868586
-0.015741192117477
-0.016369374385075
-0.016992689430116
-0.017610372624493
-0.018221679561149
-0.018825885911743
-0.019422288856808
-0.020010213388216
-0.020589022573381
-0.021158120003266
-0.021716928046677
-0.02226491710812
-0.022801602908992
-0.023326542952075
-0.023839343098601
-0.024339651679703
-0.024827171448611
-0.025301643686669
-0.025762872443787
-0.026210687126985
-0.02664499647976
-0.027065704833006
-0.027472834081068
-0.027866337000797
-0.028246372493267
-0.02861288713884
-0.02896623569557
-0.029306237832089
-0.029633577759599
-0.029947654023374
-0.030249713519441
-0.030537841694152
-0.030813745289864
-0.031070418391444
-0.0051381666500403
-0.0057843728569632
-0.0064489108428471
-0.0071198655840379
-0.0077915860484135
-0.0084638399022095
-0.0091380936250428
-0.0098151201816675
-0.010494643476669
-0.011175801329082
-0.011857585137333
-0.012539066635091
-0.013219433110123
-0.013897922662282
-0.014573770985527
-0.015246201492607
-0.015914426416385
-0.016577647032837
-0.017235064245638
-0.01788589469713
-0.018529378368169
-0.019164777385366
-0.019791376826011
-0.020408489109513
-0.021015459543664
-0.021611669669749
-0.022196543047454
-0.022769542890072
-0.023330180867008
-0.023878016161573
-0.024412664806036
-0.02493379008971
-0.025441119131427
-0.025934419662722
-0.026413535670633
-0.026878334631779
-0.02732878573326
-0.027764840490825
-0.028186607648718
-0.028594087783985
-0.028987566119411
-0.029367018095264
-0.029732991731524
-0.030085267545793
-0.030424846823653
-0.030750888332533
-0.031065163546913
-0.031364863480232
-0.031652240572018
-0.031916551359178
-0.0045260708498381
-0.0052299787912107
-0.0059572151099228
-0.0066899754145285
-0.0074202125286419
-0.0081480804590226
-0.0088762035973787
-0.0096060794576463
-0.010337600365501
-0.011069799188117
-0.011801522849613
-0.012531760548593
-0.013259683455806
-0.013984540614548
-0.014705575303278
-0.015422009064265
-0.016133044556935
-0.016837866517906
-0.017535655868442
-0.018225610980767
-0.018906956692713
-0.019578940594947
-0.020240832111212
-0.020891927099685
-0.021531555635526
-0.022159089267761
-0.022773947592202
-0.023375591263527
-0.023963533096304
-0.024537337158389
-0.02509663194934
-0.025641098124468
-0.026170491015778
-0.026684609603282
-0.027183344629056
-0.027666608402947
-0.028134439320956
-0.028586843595318
-0.029024028289691
-0.029446050292127
-0.029853336542841
-0.030245899299755
-0.030624501179699
-0.030988888672182
-0.031340412779365
-0.031677987196648
-0.03200396164371
-0.032314573303757
-0.032612675997664
-0.032883391186685
-0.0038172357373802
-0.0045891718085041
-0.0053906484412114
-0.0061964291631154
-0.0069955478498843
-0.0077887186360663
-0.0085800378373329
-0.0093718899718197
-0.010164344800785
-0.010956281224663
-0.011746359382496
-0.012533467889866
-0.013316761773294
-0.014095506578871
-0.014868956012405
-0.015636328925149
-0.016396816087008
-0.017149582962983
-0.017893787732511
-0.018628607977963
-0.01935325109659
-0.020066947906305
-0.020768950412737
-0.021458537356188
-0.022135024136151
-0.022797770595465
-0.023446186599259
-0.024079726838427
-0.02469790354732
-0.025300284647679
-0.025886510178451
-0.026456276742932
-0.027009366311884
-0.027545608270827
-0.028064940224727
-0.028567319930987
-0.029052856065211
-0.029521611414889
-0.029973893996325
-0.030409821422586
-0.030829966164257
-0.031234385154889
-0.031624059480039
-0.031998716638565
-0.032360059349446
-0.03270678204694
-0.033041807599853
-0.033360443658899
-0.033666110484831
-0.033939675493907
-0.0030125395991236
-0.0038626650493062
-0.0047499708029693
-0.0056399952565633
-0.0065182811726557
-0.0073863283759767
-0.008250071010674
-0.00911295963872
-0.0099752427535721
-0.010835583990041
-0.011692407143489
-0.012544479910004
-0.01339094061629
-0.014231076071064
-0.015064151574969
-0.015889379517393
-0.016705932642634
-0.017512950843958
-0.018309563797728
-0.019094923060808
-0.019868213651774
-0.020628644627165
-0.021375445262853
-0.022107871440371
-0.022825217340043
-0.023526824210765
-0.024212085665063
-0.024880443215364
-0.025531400821525
-0.026164522665935
-0.02677945290092
-0.027375898007159
-0.02795366037148
-0.028512593614441
-0.029052674738574
-0.029573901216508
-0.030076444903218
-0.030560421954211
-0.031026233749902
-0.031474059262408
-0.031904605596865
-0.03231798374321
-0.032715373937498
-0.033096512688742
-0.033463413928582
-0.033814619355635
-0.034153545449838
-0.034474718913635
-0.034782006196057
-0.035052338721496
-0.002110436138927
-0.0030489079336536
-0.0040338944946493
-0.0050195938321733
-0.0059874246739485
-0.0069399688437661
-0.0078854322168107
-0.0088285273925275
-0.0097696651684903
-0.010707212446016
-0.0116392996716
-0.012564554351987
-0.013482099196418
-0.014391246512796
-0.015291272042675
-0.016181374866733
-0.017060700335944
-0.017928353237696
-0.01878342596898
-0.019625035913476
-0.020452337549704
-0.021264509541858
-0.022060749133759
-0.022840279507593
-0.023602363070647
-0.024346311725309
-0.025071491706809
-0.025777320215958
-0.026463281317993
-0.02712892420413
-0.027773884555292
-0.028397865643371
-0.029000675996071
-0.029582181562776
-0.030142384487665
-0.03068131006675
-0.031199176109406
-0.031696142923565
-0.032172684036488
-0.032629036440846
-0.033066010496935
-0.033483783096428
-0.033883680311026
-0.034265494165141
-0.034631450608886
-0.034980059997229
-0.035315051657009
-0.035630474243779
-0.035930373367545
-0.036188547058487
-0.0011073192626482
-0.0021443989513283
-0.0032393531421944
-0.0043325249900201
-0.0054004972131446
-0.0064473128368458
-0.0074839664935979
-0.0085166563908209
-0.0095459251971373
-0.010569736329639
-0.011585854486159
-0.012592746419256
-0.013589524676075
-0.014575532815507
-0.015550053004188
-0.016512259364423
-0.017461256253566
-0.018396101185345
-0.019315838477317
-0.020219540713306
-0.021106320562291
-0.021975314223186
-0.022825673905233
-0.023656576697814
-0.024467239019009
-0.02525692921506
-0.02602497045974
-0.026770739644789
-0.027493683292852
-0.028193317836761
-0.028869251454517
-0.029521166528324
-0.030148858026231
-0.030752185465907
-0.031331151991506
-0.031885791954589
-0.032416339623623
-0.032922983229961
-0.033406228723626
-0.033866363660594
-0.034304242772728
-0.03472012462
-0.035115381476801
-0.035489930602384
-0.035846032046653
-0.036182350293645
-0.03650261687392
-0.036800888371232
-0.037080923359526
-0.03731477451176
2.0435329185306e-06
-0.0011441077791848
-0.0023618122742584
-0.0035746373499495
-0.0047535994801181
-0.0059046978813246
-0.0070422966190781
-0.0081742958039236
-0.0093013118090977
-0.010420781365903
-0.011530026091482
-0.012627330670108
-0.013711804727868
-0.014782831671128
-0.015839695648812
-0.01688152945797
-0.017907377195456
-0.018916232930758
-0.01990707957493
-0.020878931802758
-0.021830845811337
-0.022761899697458
-0.023671184055513
-0.024557812871423
-0.025420938206062
-0.026259765549382
-0.02707355394728
-0.027861619483509
-0.028623349379962
-0.029358205440843
-0.030065743612359
-0.030745600101164
-0.031397526885521
-0.032021350662795
-0.032617041612684
-0.033184617384294
-0.033724285047229
-0.034236239137749
-0.034720956752236
-0.035178768042504
-0.03561047967383
-0.036016458531092
-0.036397964852105
-0.036755149618917
-0.037090021727659
-0.037401646756065
-0.037693282320057
-0.037959678282618
-0.038203529916407
-0.038397247959317
0.0012244742817893
-4.1903881917055e-05
-0.0013958636215432
-0.0027408471140129
-0.0040417620677866
-0.0053073125462518
-0.0065559007921732
-0.0077973072808791
-0.0090320977849387
-0.01025702235295
-0.011468880216915
-0.012665761849945
-0.013846783200145
-0.015011371576969
-0.016158804296824
-0.017288153094316
-0.018398378822752
-0.019488392841183
-0.02055710108475
-0.021603444882255
-0.022626406138756
-0.023624985474087
-0.024598191168984
-0.025545053318001
-0.026464637177723
-0.027356062464382
-0.0282184985758
-0.029051174977497
-0.029853390986236
-0.030624525513136
-0.031364050982207
-0.032071526985317
-0.032746626103158
-0.033389108491919
-0.033998865095087
-0.034575864437514
-0.035120224841324
-0.035632119002786
-0.036111904762516
-0.036559944397429
-0.036976853692163
-0.037363143664233
-0.037719721270312
-0.038047143342453
-0.03834675184286
-0.038618362917895
-0.038864207595286
-0.039080577259754
-0.039267646646395
-0.039401439291544
0.0025683005087733
0.0011697769737534
-0.00033493714754774
-0.0018251155245792
-0.0032591621719477
-0.0046495242395259
-0.0060194411979762
-0.0073807399532872
-0.0087337531237716
-0.010074343371391
-0.011398702735029
-0.012704729523263
-0.01399156498529
-0.015258680861269
-0.016505329123909
-0.017730493364435
-0.018933024247635
-0.020111727880834
-0.021265414096271
-0.022392932050525
-0.023493167983626
-0.024565022068486
-0.025607395861802
-0.026619210914733
-0.027599419291326
-0.028547027467316
-0.029461084953875
-0.030340704340181
-0.031185063405063
-0.031993424539953
-0.032765138025399
-0.033499649982116
-0.034196507660579
-0.034855367434091
-0.035475983792435
-0.03605824105331
-0.036602091216289
-0.037107660330706
-0.037575073920521
-0.038004732047614
-0.038396867825316
-0.038752195665871
-0.039070904628834
-0.039354136533442
-0.039601771919525
-0.039814675412019
-0.039993543318868
-0.040136497828736
-0.040239240136945
-0.040289190709047
0.0040407165246033
0.002498659584709
0.00082853703048773
-0.00082026658539852
-0.0023989426571874
-0.0039247537541874
-0.0054266819106237
-0.0069187780028951
-0.0084009104121525
-0.0098678185014674
-0.011315000776806
-0.012740179108649
-0.014142546354926
-0.015521613789809
-0.016876578997993
-0.018206303096677
-0.019509496742219
-0.020784836970277
-0.022031016116416
-0.023246768820264
-0.024430860529227
-0.025582064215292
-0.026699146669248
-0.02778089217294
-0.028826109064464
-0.029833658709361
-0.030802436412907
-0.031731402948961
-0.03261957580674
-0.033466061875605
-0.034270041933047
-0.035030806155081
-0.03574772123006
-0.036420297908658
-0.037048080304029
-0.037630835011936
-0.038168251153689
-0.038660391312577
-0.039107020761475
-0.039508630113997
-0.039864883397217
-0.040176985278002
-0.040444235909329
-0.040668954078252
-0.040849024867406
-0.040987758046341
-0.041085244060233
-0.041137017596515
-0.041126933207442
-0.041061935312709
0.0056492470558458
0.0039525326401856
0.002102085412962
0.0002810741071233
-0.0014538214354538
-0.003125921366617
-0.0047708828571118
-0.0064050865210302
-0.0080276414474116
-0.009631913743474
-0.011212639420281
-0.012767397195176
-0.0142954604546
-0.015796365219219
-0.017269212726712
-0.01871269872041
-0.020125360760808
-0.021505721149671
-0.022852330376115
-0.024163782144598
-0.025438691813941
-0.026675674291849
-0.027873330305559
-0.029030274682005
-0.030145138949549
-0.031216602709212
-0.032243367962265
-0.033224202760185
-0.03415792059809
-0.035043429602284
-0.03587968933595
-0.036665785987233
-0.0374008395318
-0.038084163987044
-0.038715002037975
-0.039292957482618
-0.039817328471274
-0.04028807461577
-0.040704460321105
-0.041067019291684
-0.041374417937626
-0.041628602093357
-0.041827275422935
-0.041973464820041
-0.042061975469378
-0.042100287574474
-0.042086638696938
-0.042018586722263
-0.041868163585917
-0.041682052649168
0.0074006917827979
0.0055383940974149
0.0034926634906932
0.0014860437655282
-0.00041647593182605
-0.0022457484349894
-0.0040450280405709
-0.0058330027294814
-0.0076076358169831
-0.0093606575004618
-0.011086001362294
-0.012781159241039
-0.014445512257921
-0.016078589687052
-0.017679338674068
-0.019246238569115
-0.020777618315994
-0.022271818551143
-0.023727220619241
-0.025142245833502
-0.026515325634117
-0.027844881825487
-0.029129314298414
-0.030367032247646
-0.031556454388502
-0.032696039159211
-0.033784255027725
-0.034819631493565
-0.035800728859364
-0.036726205910738
-0.037594744996075
-0.038405172158896
-0.039156298124391
-0.039847168966674
-0.040476647063217
-0.041044090576257
-0.041548266239995
-0.041988863752704
-0.042364665796345
-0.042675955376274
-0.042920901640126
-0.043102325506548
-0.04321443866025
-0.043259086381538
-0.043228058702592
-0.043135076535137
-0.042955714417107
-0.042724339466805
-0.042431997243266
-0.042087226307069
0.0093007762918808
0.0072622435529963