/*--------------------------------*- C++ -*----------------------------------*\
| =========                 |                                                 |
| \\      /  F ield         | OpenFOAM: The Open Source CFD Toolbox           |
|  \\    /   O peration     | Version:  2112                                  |
|   \\  /    A nd           | Website:  www.openfoam.com                      |
|    \\/     M anipulation  |                                                 |
\*---------------------------------------------------------------------------*/
FoamFile
{
    version     2.0;
    format      ascii;
    arch        "LSB;label=32;scalar=64";
    class       surfaceScalarField;
    location    "10";
    object      phi;
}
// * * * * * * * * * * * * * * * * * * * * * * * * * * * * * * * * * * * * * //

dimensions      [0 3 -1 0 0 0 0];

oriented        oriented;

internalField   nonuniform List<scalar> 
43645
(
0.39512373230036
-4.8592614034291e-06
0.39513832831304
-1.4596042582764e-05
0.39516270184621
-2.4373565523373e-05
0.39519684147579
-3.4139663007236e-05
0.39524071964495
-4.3878202756509e-05
0.39529429387702
-5.3574265343472e-05
0.39535750575723
-6.3211912881901e-05
0.39543028535332
-7.2779628045767e-05
0.3955125517644
-8.2266442239619e-05
0.39560421552022
-9.1663786191719e-05
0.39570517240215
-0.00010095691148095
0.39581530938782
-0.00011013701443135
0.39593449596994
-0.00011918661008479
0.39606259842623
-0.00012810248350298
0.39619945409792
-0.00013685569815283
0.39634489621489
-0.00014544214275597
0.39649869602792
-0.00015379983817207
0.3966606317351
-0.00016193573175563
0.39683037645532
-0.00016974474427379
0.39700767441108
-0.00017729797939302
0.39719209263417
-0.00018441824632906
0.39738342112018
-0.00019132850898674
0.39758108750589
-0.0001976664084476
0.39778505952587
-0.00020397204259953
0.39799448064965
-0.00020942114630282
0.39820974000079
-0.00021525937369028
0.39842932673208
-0.00021958675387597
0.39865459851011
-0.00022527180046412
0.39888254847777
-0.00022794998976667
-0.00023418776469221
0.39911673621989
0.37294711831402
-9.4228807422209e-06
0.37296092732602
-2.8405104619778e-05
0.3729841352644
-4.7581554863891e-05
0.37301674204346
-6.6746492995223e-05
0.37305872820633
-8.5864415915797e-05
0.37311006186805
-0.00010490797648146
0.37317069561725
-0.00012384571046422
0.37324056899938
-0.00014265305751232
0.37331960985897
-0.00016130734805123
0.37340773846952
-0.00017979244190218
0.3735048622722
-0.0001980807581941
0.37361088079159
-0.00021615557679521
0.37372567551622
-0.00023398137660725
0.37384912267741
-0.00025154968559149
0.37398106806417
-0.00026880112480958
0.3741213525836
-0.00028572670120434
0.37426975694921
-0.0003022042419405
0.37442607089833
-0.00031824971833095
0.3745899829329
-0.00033365681561463
0.37476125387684
-0.00034856895958627
0.37493946997056
-0.00036263437582934
0.3751244378416
-0.00037629641548999
0.3753156037944
-0.00038883239643302
0.37551294777951
-0.00040131606277554
0.37571563187083
-0.00041210527258785
0.37592405214234
-0.00042367968024111
0.37613672530818
-0.00043225995480913
0.37635501034323
-0.00044355687033997
0.37657595913825
-0.00044889881860188
-0.00046137198736928
0.37680314332601
0.35201543509563
-1.3960500146187e-05
0.35202908539735
-4.2055458061116e-05
0.3520519175706
-7.0413780057058e-05
0.35208394074387
-9.8769717660417e-05
0.35212515280727
-0.000127076529723
0.35217553753325
-0.00015529275172217
0.35223505808615
-0.00018336631137139
0.35230366032118
-0.00021125533931535
0.35238127779343
-0.00023892486577372
0.35246783969484
-0.00026635438752592
0.35256326618427
-0.00029350729054723
0.3526674713547
-0.00032036078892003
0.3527803489346
-0.00034685899697123
0.35290178370135
-0.00037298449168694
0.35303162502006
-0.00039864248174733
0.35316971754286
-0.00042381926129535
0.35331584545264
-0.00044833218808423
0.35346981046511
-0.00047221476645333
0.35363131244304
-0.00049515882850377
0.35380013670597
-0.00051739325701163
0.35397588090766
-0.00053837861158049
0.3541583836914
-0.00055879923307699
0.3543470856918
-0.00057753443049597
0.35454200882258
-0.00059623922726855
0.354742272228
-0.00061236871176504
0.35494834604234
-0.00062975352859573
0.35515863003279
-0.00064254397952214
0.35537464030556
-0.00065956717731358
0.35559315001069
-0.0006674085570431
-0.00068628234536001
0.35581806033396
0.33225855792547
-1.8474509830395e-05
0.33227212198905
-5.5619568582309e-05
0.33229478129743
-9.3073135623169e-05
0.33232654510205
-0.0001305335689935
0.33236742473786
-0.00016795621137171
0.33241742165658
-0.00020528971528399
0.33247651270553
-0.00024245740405198
0.33254465176839
-0.0002793944448091
0.33262177888996
-0.00031605202878997
0.33270783356082
-0.00035240909871109
0.33280275111212
-0.00038842488098109
0.33290646336323
-0.00042407307806316
0.33301887860401
-0.0004592742746404
0.33313989130548
-0.00049399722902951
0.33326935340622
-0.00052810461733754
0.33340711219512
-0.00056157808418411
0.33355295302055
-0.0005941730466619
0.33370669019234
-0.00062595197073429
0.33386803370344
-0.00065650237147432
0.33403679771096
-0.00068615729596793
0.3342125886
-0.00071416953166497
0.33439528469787
-0.00074149536180961
0.33458431074831
-0.00076656051161964
0.33477974446582
-0.00079167297548661
0.33498063657223
-0.00081326084891651
0.33518756416725
-0.00083668115458921
0.33539875801284
-0.00085373785628167
0.33561597745714
-0.00087678665268487
0.33583561674611
-0.00088704787619294
-0.00091280849476932
0.33606214286395
0.31361057220981
-2.298937953273e-05
0.3136241233611
-6.9170762049901e-05
0.31364673642511
-0.0001156862418425
0.31367842680347
-0.00016222398898818
0.31371922303728
-0.00020875248588136
0.31376914713333
-0.00025521385101791
0.31382819216033
-0.0003015024695842
0.313896322251
-0.00034752457289896
0.31397348612877
-0.00039321594278702
0.31405963633502
-0.00043855934004679
0.31415472679049
-0.00048351537034225
0.3142587109338
-0.00052805725416848
0.31437151509192
-0.00057207846442686
0.31449304641591
-0.00061552858372379
0.31462316120766
-0.0006582194387963
0.31476171138371
-0.00070012828915894
0.31490848456339
-0.00074094625448283
0.31506331083248
-0.00078077826740267
0.31522591175434
-0.00081910332037052
0.31539613592501
-0.00085638149335683
0.31557359846322
-0.00089163209630901
0.31575822573542
-0.00092612266038049
0.31594942107439
-0.0009577558768981
0.31614733193183
-0.00098958385940108
0.31635092327802
-0.0010168522217572
0.31656090739462
-0.0010466652981965
0.31677530341926
-0.0010681339082699
0.31699617390388
-0.0010976571647315
0.31721943153476
-0.001110305533864
-0.0011436122008228
0.3174502352125
0.29600922668108
-2.7514237380212e-05
0.2960227913121
-8.2735431836653e-05
0.29604539996383
-0.000138294932322
0.29607707700922
-0.00019390107258217
0.29611787212747
-0.0002495476415058
0.2961678317382
-0.00030517349821072
0.29622696837336
-0.00036063914018786
0.29629525918918
-0.00041581542318461
0.29637266444482
-0.0004706212318162
0.29645915324585
-0.00052504817346248
0.296554702307
-0.00057906446278279
0.29665929135432
-0.00063264633179275
0.29677286914631
-0.00068565628569647
0.29689535958214
-0.0007380190479354
0.29702662652505
-0.00078948640916894
0.29716652999756
-0.00084003178840529
0.29731486279597
-0.00088927907888773
0.29747147551595
-0.00093739101284066
0.29763610477685
-0.00098373260619006
0.297808640555
-0.0010289172961043
0.29798870921927
-0.0010717007848576
0.29817629431956
-0.001113707784841
0.29837077572495
-0.0011522373063364
0.29857238361574
-0.0011911917743256
0.29877998497029
-0.0012244536005102
0.2989944501428
-0.001261130495156
0.29921355339405
-0.0012872371841833
0.29943970820884
-0.0013238120041443
0.29966826899959
-0.0013388663485707
-0.0013805323220436
0.29990518909541
0.27939576263073
-3.2042380370141e-05
0.27940932092922
-9.6293764256108e-05
0.27943189192004
-0.00016086595694858
0.27946351093203
-0.00022552011783348
0.27950425174354
-0.00029028848548701
0.27955418852618
-0.00035511031246678
0.27961335650306
-0.00041980714773061
0.2796817489177
-0.00048420786757337
0.27975934077462
-0.00054821311747911
0.27984612149299
-0.00061182891962547
0.27994209493584
-0.00067503793242371
0.28004727197648
-0.00073782339831429
0.28016162869802
-0.00080001303217287
0.28028511067893
-0.00086150105295668
0.28041759388859
-0.00092196964210893
0.28055895144759
-0.00098138937003929
0.28070898601285
-0.0010393136661051
0.28086757488055
-0.001095979902035
0.28103447495353
-0.0011506327002058
0.28120962555642
-0.0012040679197598
0.28139266884075
-0.0012547440897079
0.28158365531913
-0.0013046942836933
0.28178194253022
-0.0013505245378415
0.28198785638566
-0.0013971056503046
0.28220015942805
-0.0014367566635721
0.28241990136896
-0.0014808724570221
0.28264458977004
-0.0015119256064756
0.28287703053196
-0.0015562527873263
0.28311196522007
-0.0015738010574348
-0.0016247968617976
0.28335622973761
0.263714721834
-3.6554793287661e-05
0.26372821760765
-0.0001097895682954
0.26375065819744
-0.00018330657699154
0.26378209156647
-0.00025695351665612
0.2638226177538
-0.00033081470193762
0.26387234125048
-0.00040483383758305
0.26393132279985
-0.00047878872473105
0.26399957477053
-0.0005524598651315
0.26407709025765
-0.00062572863061097
0.2641638828031
-0.00069862149031389
0.26425998774684
-0.00077114290051786
0.26436545194591
-0.00084328762097341
0.26448028395617
-0.00091484506516713
0.26460445652661
-0.0009856736454315
0.26473786330901
-0.0010553764457984
0.26488039667359
-0.0011239227553088
0.26503187528731
-0.0011907922998973
0.2651922105119
-0.0012563151462531
0.26536118632614
-0.0013196085336183
0.26553880031417
-0.0013816819266885
0.26572471701549
-0.0014406608096243
0.26591906448001
-0.0014990417666948
0.26612118242399
-0.0015526425001704
0.26633150573318
-0.0016074289778624
0.26654869175754
-0.0016539427062986
0.26677398908851
-0.001706169806509
0.2670046267465
-0.0017425632830743
0.26724383740818
-0.0017954634675431
0.26748571364879
-0.0018156773160327
-0.0018771236975575
0.2677380404653
0.24891376120701
-4.102333520332e-05
0.24892711082827
-0.00012313921569831
0.2489492833471
-0.00020547912183483
0.24898034079911
-0.0002880109942726
0.24902041095366
-0.00037088488150796
0.24906963039114
-0.0004540532995077
0.24912808763154
-0.00053724598888244
0.2491958169171
-0.00062018917381121
0.24927283262726
-0.00070274436315928
0.24935917598302
-0.00078496486779156
0.24945491780013
-0.00086688473859553
0.24956014536726
-0.00094851520842599
0.24967490478441
-0.001029604501907
0.24979920157884
-0.0011099704588608
0.24993295335731
-0.0011891282426089
0.25007607854783
-0.0012670479636755
0.25022841913629
-0.0013431329056676
0.25038992855613
-0.0014178245830351
0.25056042595558
-0.0014901059496134
0.25073997648115
-0.0015612324685763
0.25092827565228
-0.0016289599968161
0.2511255398428
-0.0016963059731871
0.25133109927241
-0.0017582019456427
0.25154551063211
-0.0018218403534594
0.25176733163989
-0.0018757637299735
0.25199802599938
-0.0019368641820312
0.25223454223975
-0.0019790795395486
0.25248056477373
-0.0020414860175582
0.25272952112716
-0.0020646336850373
-0.0021377946310312
0.25299019204388
0.23494347779905
-4.541359610172e-05
0.23495657874576
-0.00013624018534373
0.23497831496869
-0.00022721536759008
0.23500876353627
-0.00031845958436853
0.23504808058638
-0.00041020195367621
0.23509643565517
-0.00050240838991975
0.2351539465637
-0.00059475691849178
0.23522067163702
-0.00068691426774222
0.23529664929653
-0.00077872204268276
0.23538195141288
-0.00087026700364147
0.23547668765212
-0.00096162099673183
0.23558098937909
-0.0010528169537586
0.23569494493213
-0.0011435600727217
0.23581859774873
-0.0012336232927346
0.23595189610537
-0.00132242661598
0.23609479113652
-0.0014099430111266
0.23624715652105
-0.0014954983060244
0.23640899535254
-0.0015796634300205
0.23658017148582
-0.0016612820980109
0.2367608258328
-0.0017418868304463
0.23695069603443
-0.0018188302130666
0.23715009537715
-0.0018957053303925
0.23735835845983
-0.0019664650426518
0.23757617288069
-0.0020396547885979
0.23780201378983
-0.0021016046533064
0.23803756954449
-0.0021724199508981
0.23827952434009
-0.002221034349331
0.23853202220658
-0.0022939838980477
0.23878782202874
-0.002320433520714
-0.0024067066507249
0.23905673403392
0.22175724386666
-4.9687691493442e-05
0.22176998284171
-0.00014897918006201
0.22179109749088
-0.00024833003636481
0.22182068036722
-0.00034804248008094
0.22185891572459
-0.00044843733005287
0.22190600588398
-0.00054949856799955
0.22196209856923
-0.00065084962200828
0.22202727762254
-0.00075209333897454
0.22210160755913
-0.00085305199673167
0.2221851929766
-0.00095385243819026
0.22227818483836
-0.0010546128750922
0.22238076103173
-0.0011553931633289
0.22249305615422
-0.0012558552109254
0.22261515557561
-0.0013557227294735
0.22274704527919
-0.0014543163344443
0.22288871445035
-0.0015516121968418
0.22304007842983
-0.0016468622996543
0.22320119506784
-0.0017407800819162
0.22337198572324
-0.0018320727669728
0.22355267058197
-0.0019225717025539
0.22374304685187
-0.002009206496095
0.22394352428323
-0.0020961827747717
0.22415346851989
-0.0021764092921671
0.22437368797122
-0.0022598742527332
0.22460261980243
-0.002330536497217
0.22484215074015
-0.0024119509013167
0.22508877968441
-0.0024676633062119
0.22534707633324
-0.0025522805593055
0.22560920480483
-0.0025825620042769
-0.0026834172790501
0.2258859154203
0.20931105098649
-5.380674426771e-05
0.20932331156674
-0.00016123977745721
0.20934361511325
-0.00026863359998831
0.20937206935803
-0.00037649674182705
0.20940888539916
-0.00048525338789959
0.2094542970823
-0.00059491026764464
0.20950848162566
-0.00070503418157667
0.20957154892866
-0.00081516065795725
0.20964359071343
-0.00092509379714675
0.20972474532456
-0.0010350070647172
0.20981520618695
-0.0011450737525046
0.20991519881715
-0.0012553858082818
0.21002490686697
-0.0013655632751168
0.21014446036214
-0.0014752762387432
0.21027388966924
-0.0015837456552708
0.21041322555296
-0.0016909480940321
0.21056243638557
-0.0017960731453915
0.2107216357493
-0.0018999794585415
0.2108908203089
-0.0020012573391778
0.21107028396225
-0.0021020353683266
0.21125991411944
-0.0021988366654762
0.21146019596966
-0.0022964646370353
0.21167058783079
-0.0023868011651716
0.21189195151745
-0.0024812379511498
0.21212282916488
-0.0025614141562756
0.21236508797763
-0.0026542097256116
0.21261542855238
-0.0027180038923818
0.21287818575893
-0.002815037777017
0.21314606566008
-0.0028504419161296
-0.0029673195674015
0.21342996793698
0.19756336295517
-5.7733183549719e-05
0.1975750321388
-0.00017290897599217
0.19759434191992
-0.00028794339603586
0.19762141402709
-0.00040356886384011
0.1976564840731
-0.00052032344858503
0.19769981507851
-0.00063824128761346
0.19775161228121
-0.00075683139864334
0.19781201119228
-0.00087555958325205
0.19788113074005
-0.00099421335891878
0.19795914289966
-0.0011130192381727
0.19804628311618
-0.0012322139826158
0.19814282445587
-0.0013519271613822
0.19824900021671
-0.0014717390490995
0.19836498751304
-0.0015912635480158
0.19849086451201
-0.0017096226669048
0.19862670881104
-0.0018267924055245
0.19877254776753
-0.0019419121140694
0.19892855582268
-0.0020559875256956
0.1990948150503
-0.0021675165785446
0.19927169359565
-0.0022789139252601
0.19945919005475
-0.0023863331359413
0.19965785531084
-0.0024951299043501
0.19986728410894
-0.0025962299743093
0.20008836033467
-0.0027023141878008
0.20031981843011
-0.0027928722624817
0.20056344016872
-0.0028978314748851
0.20081627619209
-0.0029708399262645
0.20108228970562
-0.0030810513007857
0.20135496855314
-0.0031231207734454
-0.003257084223684
0.20164473319894
0.18647497735707
-6.1433183065923e-05
0.18648595141138
-0.00018388304352814
0.1865041014411
-0.00030609343903442
0.18652956047088
-0.00042902790688398
0.1865625855113
-0.00055334850216804
0.18660346557789
-0.0006791213673136
0.18665243151498
-0.00080579734873296
0.18670964295443
-0.00093277103563505
0.18677524491012
-0.0010598153273967
0.18684944153854
-0.0011872158792998
0.18693250837375
-0.0013152808303691
0.18702476433101
-0.0014441831310787
0.18712649108182
-0.001573465812155
0.18723791395093
-0.001702686429256
0.18735915977309
-0.0018308685009708
0.18749035833221
-0.0019579909764105
0.18763159696924
-0.0020831507626405
0.18778312001853
-0.0022075105863645
0.18794509370697
-0.0023294902781284
0.18811797444325
-0.0024517946725207
0.18830186717767
-0.0025702258811128
0.18849741425976
-0.002690676997028
0.18870433251576
-0.0028031482406942
0.18892358133728
-0.0029215630195558
0.18915403997231
-0.003023330907564
0.189397533789
-0.0031413253014926
0.18965128426896
-0.0032245904159643
0.18991926837378
-0.0033490354150631
0.19019517074359
-0.0033990231522883
-0.0035514658330103
0.19048955234323
0.17600889308914
-6.4877523361354e-05
0.17601908489972
-0.00019407486600954
0.1760359336878
-0.00032294223910839
0.17605958163469
-0.00045267586580106
0.17609030358193
-0.00058407046137031
0.17612841062508
-0.00071722842240806
0.17617415605008
-0.00085154278559529
0.17622772127635
-0.00098633627374807
0.1762892752307
-0.0011213692934769
0.17635905153253
-0.0012569921928274
0.17643736246484
-0.0013935917742622
0.17652456933055
-0.0015313900083121
0.17662099938536
-0.0016698958783706
0.17672692495789
-0.0018086120131143
0.17684252148971
-0.0019464650439664
0.17696797273178
-0.0020834422295533
0.17710342735703
-0.0022186053987855
0.17724920320498
-0.0023532864450522
0.17740555083935
-0.002485837923029
0.17757302255815
-0.0026192664016742
0.17775182638926
-0.0027490297223375
0.17794271515755
-0.0028815657752313
0.17814551569173
-0.0030059487845707
0.1783613075281
-0.0031373548654169
0.178589077603
-0.0032511009917748
0.17883078656583
-0.003383034273445
0.17908374014573
-0.0034775440048266
0.17935209309801
-0.0036173883760158
0.17962952632763
-0.0036764563902324
-0.0038489445989176
0.17992700508458
0.16613018706261
-6.804261618903e-05
0.16613952863359
-0.00020341644795255
0.1661549641497
-0.00033837776628389
0.16617664317599
-0.00047435490317237
0.16620485454535
-0.00061228184174691
0.16623992690658
-0.00075230079462995
0.16628213195441
-0.00089374784430464
0.16633166966369
-0.0010358739938646
0.16638872993415
-0.0011784295746474
0.16645357221496
-0.0013218344843066
0.16652654086583
-0.0014665604356941
0.16660803464785
-0.0016128838008495
0.16669842197973
-0.0017602832206777
0.16679801913626
-0.0019082091800381
0.16690704838004
-0.0020554942980179
0.16702574666565
-0.0022021405253546
0.16715432391743
-0.0023471826606065
0.16729317089149
-0.0024921334290121
0.16744262307442
-0.0026352901156441
0.16760332817212
-0.0027799715088492
0.16777560028423
-0.0029213018436687
0.16796030468529
-0.0030662701852445
0.16815738596499
-0.0032030300729689
0.16836804963422
-0.0033480185430825
0.16859140535089
-0.0034744567166422
0.16882955797698
-0.0036211869075175
0.16907993258385
-0.0037279186195197
0.16934686063788
-0.0038843164376192
0.1696240924679
-0.0039536882275712
-0.0041477291519139
0.1699228770129
0.15680589749353
-7.091142929393e-05
0.1568143404671
-0.0002118594318409
0.15682828260604
-0.00035231991558696
0.1568478788042
-0.00049395111163947
0.15687342783857
-0.00063783088626306
0.15690527103531
-0.00078414400139245
0.15694369408678
-0.00093217090557235
0.15698891175622
-0.0010810916729458
0.15704113109755
-0.0012306489254073
0.15710063265214
-0.0013813360481862
0.15716778730995
-0.0015337151026328
0.15724302521658
-0.0016881217165393
0.15732675009869
-0.0018440081117451
0.15741931746426
-0.0020007765545276
0.157520992832
-0.0021571696745882
0.15763206353622
-0.0023132112383323
0.15775279819808
-0.0024679173310902
0.15788365755745
-0.0026229927968523
0.15802505917597
-0.0027766917424094
0.15817774328162
-0.0029326556224982
0.15834212914534
-0.0030856877150754
0.15851919466614
-0.0032433357134128
0.1587090075863
-0.0033928430001499
0.15891290250329
-0.0035519134667567
0.1591301268769
-0.0036916810966303
0.15936292612756
-0.0038539861643016
0.15960888275375
-0.0039738752516818
0.15987249159336
-0.0041479252830053
0.16014766551967
-0.0042288621595946
-0.0044458699088994
0.16044580627021
0.14800491311183
-7.3473620417795e-05
0.14801242901628
-0.00021937534638871
0.14802483030063
-0.0003647212099637
0.14804227490508
-0.00051139572586544
0.14806506740239
-0.0006606233929706
0.14809355682105
-0.00081263342907126
0.14812803827109
-0.00096665236418
0.14816873714694
-0.0011217905569577
0.14821587343619
-0.0012777852224127
0.14826974336653
-0.0014352059859649
0.14833073789168
-0.0015947096349296
0.1483993112082
-0.0017566950400376
0.14847589596885
-0.0019205928792148
0.14856088057765
-0.0020857611700794
0.14865456925554
-0.0022508583591316
0.1487572943278
-0.0024159363171813
0.1488693790914
-0.0025800021011411
0.14899134808065
-0.0027449617923893
0.14912369537563
-0.0029090390434286
0.1492672480922
-0.0030762083448041
0.14942252397574
-0.0032409636039702
0.14959061373568
-0.0034114254782922
0.14977170444581
-0.0035739337147668
0.14996727176123
-0.0037474807862134
0.15017670657203
-0.0039011159110712
0.15040240614443
-0.0040796857400092
0.15064211309539
-0.0042135822057812
0.15090047856174
-0.0044062907524198
0.1511716219219
-0.0045000055229989
-0.0047413007423477
0.15146705275125
0.1396978686618
-7.5725031985983e-05
0.13970444803861
-0.00022595473409073
0.13971529281788
-0.00037556599995387
0.1397305614772
-0.00052666439530611
0.13975055982904
-0.000680621754142
0.13977563946846
-0.00083771307701769
0.13980610062669
-0.00099711353009029
0.13984217537712
-0.0011578653142917
0.13988409242827
-0.0013197022797176
0.13993215759394
-0.0014832711572211
0.13998677510242
-0.0016493271484898
0.14004841471024
-0.0018183346526294
0.14011753119355
-0.0019897093670458
0.14019453784084
-0.0021627678217589
0.14027977339066
-0.0023360939132256
0.14037360673694
-0.002509769667644
0.14047641201332
-0.002682807381549
0.1405887667768
-0.0028573165597222
0.14071123587153
-0.0030315081417101
0.14084472250513
-0.0032096949815825
0.1409898342354
-0.003386075336942
0.14114776940834
-0.0035693606533893
0.14131882153844
-0.0037449858464462
0.14150461772088
-0.0039332769696105
0.14170468463039
-0.0041011828209937
0.14192162863375
-0.0042966297433326
0.14215332939158
-0.004445282963356
0.14240465725397
-0.0046576186145873
0.1426697725331
-0.0047651208024079
-0.0050317954816704
0.14296026727114
0.13185704621952
-7.7666533482587e-05
0.1318626959125
-0.00023160444112708
0.13187199747936
-0.00038486758081954
0.13188510713436
-0.00053977406332983
0.13190232689796
-0.00069784152939828
0.13192400564882
-0.00085939183813466
0.13195044466749
-0.001023552557615
0.13198187894877
-0.0011892996031619
0.1320185419378
-0.0013563652751845
0.13206074262515
-0.0015254718501159
0.1321088919087
-0.0016974764368477
0.13216346582082
-0.00187290856906
0.13222493526838
-0.0020511788185617
0.13229372847348
-0.0022315610306162
0.13237021553595
-0.002412580979273
0.13245478949935
-0.0025943436345024
0.13254787409488
-0.00277589198036
0.13265008061744
-0.0029595230853083
0.13276204572554
-0.0031434732524768
0.13288472276037
-0.0033323720186062
0.1330188156321
-0.0035201682102478
0.13316560294193
-0.0037161479640658
0.13332548847348
-0.0039048713780624
0.1335002326727
-0.0041080211680365
0.13368945849896
-0.0042904086456957
0.13389605578373
-0.0045032270258584
0.13411798968876
-0.0046672168657929
0.13436066722679
-0.0049002961500955
0.13461802306637
-0.0050224766402501
-0.0053150030338448
0.13490123061907
0.12445628307988
-7.9303290933068e-05
0.12446102329648
-0.00023634467940663
0.1244688199753
-0.00039266428191113
0.12447982291616
-0.00055077702531343
0.12449432502643
-0.00071234365889381
0.12451266835303
-0.00087773518191084
0.12453515271705
-0.001046036936817
0.12456201290593
-0.0012161598054511
0.12459348248316
-0.0013878348642927
0.12462986596283
-0.0015618553404556
0.12467157340918
-0.0017391838929196
0.12471907732228
-0.0019204124912396
0.12477286022204
-0.0021049617269234
0.12483335539931
-0.0022920562162041
0.12490096435571
-0.0024801899437519
0.12497608742953
-0.0026694667161999
0.1250592020178
-0.0028590065762505
0.12515091983301
-0.0030512409077833
0.12525196500379
-0.0032445184300277
0.12536328420104
-0.0034436912219552
0.12548572064991
-0.0036426046643837
0.125620552636
-0.0038509799544001
0.12576836943483
-0.0040526881800296
0.12593098126319
-0.0042706329983398
0.12610812795379
-0.004467555337086
0.12630291242993
-0.0046980115017506
0.12651320634291
-0.0048775107778412
0.12674532038612
-0.0051324101922787
0.12699309476367
-0.0052702510175852
-0.0055901083613251
0.12726820008978
0.11747088782423
-8.0647363525033e-05
0.11747475354413
-0.00024021043482204
0.11748110814691
-0.00039901892170182
0.11749008806336
-0.00055975697770205
0.11750197244553
-0.00072422807478043
0.11751709250593
-0.00089285527352563
0.11753574596528
-0.0010646904249492
0.11755816709455
-0.0012385809613644
0.11758458646161
-0.0014142542562158
0.1176152967871
-0.0015925656894165
0.11765069768948
-0.0017745848177046
0.11769124746103
-0.0019609622844458
0.11773743387706
-0.0021511481640699
0.11778968657965
-0.0023443089395198
0.11784843981936
-0.0025389432038529
0.11791408577522
-0.002735112692128
0.11798716339093
-0.0029320842116247
0.11806824337036
-0.0031323209063322
0.11815816780848
-0.0033344428865466
0.11825778524347
-0.0035433086743424
0.11836817235067
-0.0037529917877612
0.11849042722176
-0.0039732348401902
0.11862553610767
-0.0041877970790453
0.11877509265441
-0.0044201895564598
0.11893928419493
-0.0046317468873197
0.11912119324001
-0.0048799205548722
0.11931830154707
-0.0050746190916805
0.1195378780669
-0.00535198671825
0.1197721098049
-0.0055044827621339
-0.0058598253397085
0.12004182677453
0.11087756233548
-8.1724843706954e-05
0.11088061647104
-0.00024326462479123
0.11088562466372
-0.00040402717099446
0.11089269537268
-0.00056682774221544
0.11090209696282
-0.00073362971807796
0.11091414960096
-0.00090490796209769
0.1109291490947
-0.001079689966506
0.11094732628374
-0.0012567581960099
0.11096890383208
-0.0014358318483657
0.11099415623369
-0.0016178181334554
0.11102346472948
-0.0018038933548828
0.11105727008999
-0.0019947676856056
0.11109606156285
-0.0021899396769928
0.11114026289443
-0.0023885103107216
0.11119033618252
-0.0025890165310937
0.11124665446392
-0.0027914310122224
0.11130981336232
-0.0029952431480856
0.11138030885571
-0.003202816436978
0.11145912541307
-0.0034132594800269
0.11154691927111
-0.0036311025670449
0.11164513133663
-0.0038512038860696
0.11175440550577
-0.004082509039975
0.11187651986752
-0.0043099114690806
0.11201216924977
-0.0045558389645948
0.11216295051963
-0.0047825281805807
0.11233091249285
-0.0050478825489797
0.11251479191145
-0.005258498528889
0.11272153145752
-0.0055587262813394
0.11293827086764
-0.0057212221888134
-0.0061236601567473
0.1132021056654
0.10465430570798
-8.2564645303473e-05
0.1046566484708
-0.00024560746190652
0.10466043933023
-0.00040781810613982
0.10466575061167
-0.00057213909806322
0.10467282210001
-0.00074070127839264
0.10468197539717
-0.00091406132860378
0.10469352074621
-0.0010912353824596
0.10470768959949
-0.0012709271142283
0.10472468564464
-0.0014528279569163
0.10474475137827
-0.0016378839293502
0.10476823483817
-0.0018273768762026
0.10479555368741
-0.0020220865956159
0.10482720129156
-0.0022215873413858
0.10486361580441
-0.0024249248832899
0.10490528802013
-0.0026306888060068
0.10495257953715
-0.0028387225877446
0.10500610866751
-0.003048772336103
0.10506628307983
-0.0032629909057012
0.10513418784809
-0.0034811643030572
0.10521025131733
-0.0037071660887904
0.10529632917197
-0.0039372817904782
0.10539240152938
-0.0041785814439202
0.10550150648477
-0.00441901646769
0.10562236117699
-0.004676693696607
0.10575990501681
-0.0049200720567082
0.105911167982
-0.0051991455467547
0.10608329170168
-0.0054306222775994
0.1062756222764
-0.0057510568822363
0.10648756595664
-0.0059331658936724
-0.0063645382920905
0.10672844406359
0.098780278890536
-8.3125344600381e-05
0.098781993188126
-0.00024732184672662
0.098784624023191
-0.00041044902902191
0.098788363717857
-0.00057587887911023
0.098793304937322
-0.00074564258210806
0.098799799806981
-0.00092055628036824
0.098808178257685
-0.0010996139134497
0.098818700855187
-0.0012814497906784
0.098831572513093
-0.0014656996928524
0.098846991491077
-0.0016533029848001
0.098865241055651
-0.0018456265178546
0.098886682446778
-0.0020435280635581
0.098911775037479
-0.0022466800085991
0.098940962368924
-0.0024541122909243
0.098974774052333
-0.0026645005650898
0.09901360516239
-0.0028775537728017
0.09905811113033
-0.0030932783779498
0.099108666206845
-0.0033135460545534
0.099166392437567
-0.0035388906037305
0.099231549813517
-0.0037723235314895
0.099306257846452
-0.0040119898860547
0.09938997731898
-0.0042623009745035
0.099486874621974
-0.0045159138239047
0.099593655694199
-0.0047834748172574
0.099719257983526
-0.0050456743895315
0.099853055084975
-0.0053329426864126
0.10001513310066
-0.0055927003263797
0.10017994970833
-0.0059158735191973
0.10039022163364
-0.0061434378470413
0.10063775191055
-0.0066120686008602
0.39445281178696
0.0046639244101683
0.38994693341212
0.004505878352539
0.38560362045339
0.0043433129365401
0.38142726179825
0.0041763586327727
0.3774221009941
0.0040051607815342
0.37359223393273
0.0038298670383793
0.36994160378762
0.0036506301217758
0.36647399880207
0.003467604961814
0.36319305302114
0.0032809457568603
0.36010224900405
0.0030908039926384
0.35720492032795
0.0028973286513818
0.35450425256879
0.0027006677341216
0.35200328132458
0.0025009712189647
0.34970488801218
0.0022983932869251
0.34761179362791
0.0020930943586795
0.34572655211865
0.0018852414835219
0.34405154385294
0.0016750082399527
0.34258897068857
0.0014625731385573
0.34134085237547
0.0012481182873466
0.34030902450439
0.0010318278453508
0.33949513650416
0.00081388797463931
0.33890064831807
0.00059448816056791
0.33852682145518
0.00037382683754859
0.3383746794384
0.00015214199152429
0.33844513646607
-7.0457052712829e-05
0.3387390208736
-0.00029388443248149
0.33925667657691
-0.00051765572807269
0.33999832285748
-0.0007416463052375
0.34096394706472
-0.00096562423172553
0.34215328788303
-0.0011893408426982
0.34356582630451
-0.00141253844568
0.34520078547588