/*--------------------------------*- C++ -*----------------------------------*\
| =========                 |                                                 |
| \\      /  F ield         | OpenFOAM: The Open Source CFD Toolbox           |
|  \\    /   O peration     | Version:  2112                                  |
|   \\  /    A nd           | Website:  www.openfoam.com                      |
|    \\/     M anipulation  |                                                 |
\*---------------------------------------------------------------------------*/
FoamFile
{
    version     2.0;
    format      ascii;
    arch        "LSB;label=32;scalar=64";
    class       volVectorField;
    location    "10";
    object      U;
}
// * * * * * * * * * * * * * * * * * * * * * * * * * * * * * * * * * * * * * //

dimensions      [0 1 -1 0 0 0 0];

internalField   nonuniform List<vector> 
22000
(
(1.0000009820114 -2.5358595647929e-05 0)
(1.0000262198969 -7.6315503585947e-05 0)
(1.0000748866231 -0.00012729957467062 0)
(1.0001481250646 -0.00017814610113986 0)
(1.0002463963053 -0.00022878632526049 0)
(1.0003696265888 -0.00027916316760475 0)
(1.0005175073354 -0.00032920957619042 0)
(1.0006897186153 -0.00037887442996712 0)
(1.0008859988108 -0.00042810310249098 0)
(1.0011061356811 -0.00047685013055726 0)
(1.0013499052852 -0.00052503692892763 0)
(1.0016170596417 -0.00057261770579019 0)
(1.0019072900042 -0.00061950257241543 0)
(1.0022202777423 -0.00066567819579869 0)
(1.0025556276346 -0.00071099569069044 0)
(1.0029129549753 -0.00075543716661674 0)
(1.0032917190199 -0.00079867862163741 0)
(1.0036914159339 -0.00084076003391482 0)
(1.0041112574111 -0.00088112905361861 0)
(1.0045506354838 -0.00092016473145374 0)
(1.0050084790057 -0.00095693257737338 0)
(1.0054842468824 -0.00099261584760325 0)
(1.0059765460315 -0.0010252977755733 0)
(1.0064851823808 -0.0010578445735107 0)
(1.007008217603 -0.0010858863775586 0)
(1.0075462195418 -0.0011160425926917 0)
(1.0080961377363 -0.0011382171901046 0)
(1.0086600984316 -0.0011676858130283 0)
(1.0092328189219 -0.0011811914440997 0)
(1.009819645749 -0.0012139590596029 0)
(1.0000004436814 -7.4741593707097e-05 0)
(1.0000258093227 -0.00022508037990346 0)
(1.0000750286544 -0.00037566831551586 0)
(1.0001491592737 -0.00052599397906293 0)
(1.0002487110252 -0.00067582628956485 0)
(1.0003736977737 -0.00082497343984613 0)
(1.0005238725742 -0.00097321622179547 0)
(1.000698948665 -0.0011203869544823 0)
(1.0008986677262 -0.0012663182587851 0)
(1.0011228296234 -0.0014108780217589 0)
(1.0013712088387 -0.0015538403749797 0)
(1.0016435901805 -0.0016950700265484 0)
(1.00193965459 -0.0018342979684734 0)
(1.0022591329704 -0.0019714715918827 0)
(1.0026015747505 -0.0021061444315447 0)
(1.0029666783634 -0.002238248448692 0)
(1.0033537659936 -0.0023668320504995 0)
(1.0037625196531 -0.0024919963978123 0)
(1.0041918597571 -0.0026121328472536 0)
(1.0046416025261 -0.0027283232049074 0)
(1.0051100427338 -0.0028378596100633 0)
(1.0055975763245 -0.0029441427288903 0)
(1.0061014102606 -0.0030416413185199 0)
(1.0066234066489 -0.0031385956955852 0)
(1.0071585515811 -0.003222434099802 0)
(1.0077119328153 -0.0033121598506909 0)
(1.0082737799479 -0.0033788184806032 0)
(1.0088561550181 -0.0034661531048636 0)
(1.0094391665759 -0.0035077026537135 0)
(1.0100498758707 -0.0036040119455047 0)
(1.0000004816442 -0.00012247135019564 0)
(1.0000270559376 -0.00036889879455158 0)
(1.0000784644472 -0.0006158876741268 0)
(1.0001557146876 -0.00086265082864129 0)
(1.0002593063056 -0.0011088218367152 0)
(1.0003892892015 -0.0013540648671128 0)
(1.0005454542533 -0.0015979695646388 0)
(1.0007275435713 -0.0018402124924172 0)
(1.0009352995863 -0.0020805029956771 0)
(1.0011685406912 -0.0023186441729827 0)
(1.0014270402965 -0.0025542921792487 0)
(1.0017106342798 -0.0027872360534187 0)
(1.0020189859361 -0.0030170093142645 0)
(1.0023518980295 -0.0032434890999807 0)
(1.0027088224312 -0.0034658924539454 0)
(1.0030895794292 -0.0036841001174854 0)
(1.003493261038 -0.0038965329994598 0)
(1.0039198482399 -0.0041034173868372 0)
(1.0043677844072 -0.0043020886718581 0)
(1.0048375970193 -0.0044944293366752 0)
(1.005326527368 -0.0046758642721138 0)
(1.0058365668732 -0.0048521635440653 0)
(1.0063625320653 -0.005013901058238 0)
(1.0069098419515 -0.0051750499397461 0)
(1.0074680929992 -0.0053141979599604 0)
(1.0080503616689 -0.0054636370250221 0)
(1.0086347889487 -0.0055741072472215 0)
(1.0092514507783 -0.0057199881062367 0)
(1.0098534518333 -0.0057882792921424 0)
(1.0105084062541 -0.0059498940207224 0)
(1.0000005123619 -0.00016974073711091 0)
(1.000028496076 -0.0005111251824676 0)
(1.0000825715688 -0.00085324670138473 0)
(1.0001637789979 -0.0011952026689491 0)
(1.0002726522086 -0.0015365950995298 0)
(1.0004092876429 -0.0018769718271635 0)
(1.0005735081535 -0.0022156917096152 0)
(1.0007650816048 -0.002552223618134 0)
(1.0009837474719 -0.0028861402642324 0)
(1.001229353306 -0.0032172161609087 0)
(1.0015016758291 -0.0035450355082342 0)
(1.0018006281148 -0.003869335132989 0)
(1.0021258518398 -0.0041894208012746 0)
(1.0024772552445 -0.0045050523499467 0)
(1.0028541535149 -0.0048150444221933 0)
(1.0032565433843 -0.0051192278573941 0)
(1.0036831907544 -0.0054153881424238 0)
(1.004134507092 -0.005703986031372 0)
(1.0046082580864 -0.0059812878359387 0)
(1.005105993258 -0.0062501492230307 0)
(1.0056234542859 -0.0065039533951189 0)
(1.0061649189681 -0.0067511142560827 0)
(1.0067217948511 -0.0069778166311804 0)
(1.0073045909492 -0.007204398349893 0)
(1.0078952115061 -0.0073995019984438 0)
(1.0085181579433 -0.0076102559191192 0)
(1.0091343219962 -0.0077646348862029 0)
(1.0097995389499 -0.0079712828469261 0)
(1.0104283991592 -0.0080650881315047 0)
(1.0111464449512 -0.0082956430963188 0)
(1.0000005496675 -0.00021685063189872 0)
(1.0000301817766 -0.00065270613897517 0)
(1.000087378361 -0.0010893777726081 0)
(1.0001732306003 -0.0015260031597409 0)
(1.0002883298318 -0.0019622601744359 0)
(1.0004328421586 -0.0023976115359939 0)
(1.0006066361606 -0.0028311411261282 0)
(1.0008095153376 -0.0032620508972971 0)
(1.0010412186705 -0.0036897615695738 0)
(1.0013016364433 -0.0041140619120966 0)
(1.001590555746 -0.0045345185018977 0)
(1.0019079961909 -0.0049508454102168 0)
(1.0022535787881 -0.0053620859119387 0)
(1.002627356589 -0.0057678297553389 0)
(1.0030284776409 -0.0061664087429806 0)
(1.003457177367 -0.0065576055247371 0)
(1.0039118118603 -0.0069385492987458 0)
(1.0043933595058 -0.0073100649794352 0)
(1.0048987235035 -0.0076673132571923 0)
(1.0054307814424 -0.0080143401858547 0)
(1.0059833551859 -0.0083422456141973 0)
(1.0065636770411 -0.0086624562862417 0)
(1.0071587815925 -0.0089561101363021 0)
(1.007785735616 -0.0092507661767806 0)
(1.0084165711549 -0.0095036491037296 0)
(1.009090480635 -0.0097788070865056 0)
(1.0097462167748 -0.0099781672403444 0)
(1.0104726874777 -0.01024950893818 0)
(1.0111350611959 -0.010368193839034 0)
(1.0119331289075 -0.010673624512045 0)
(1.0000005914398 -0.00026396956688791 0)
(1.0000320317572 -0.0007941445904908 0)
(1.0000926456236 -0.0013251370306536 0)
(1.0001835808261 -0.0018563008831658 0)
(1.00030550059 -0.0023875052934626 0)
(1.0004586629699 -0.002918157701667 0)
(1.0006430012399 -0.0034470146505822 0)
(1.0008583711574 -0.0039729441151135 0)
(1.0011045195648 -0.004495197983624 0)
(1.0013813974541 -0.0050136281851399 0)
(1.0016888137333 -0.0055278448704707 0)
(1.0020269281041 -0.0060375728301223 0)
(1.0023953475986 -0.0065415529138185 0)
(1.002794314041 -0.0070391459488853 0)
(1.0032227852264 -0.0075281082005714 0)
(1.0036813010531 -0.0080081776172702 0)
(1.0041677343668 -0.0084757987364371 0)
(1.0046837676278 -0.0089323113547242 0)
(1.0052252739379 -0.0093717193770963 0)
(1.0057967581554 -0.0097995168119715 0)
(1.0063897338882 -0.010204226678392 0)
(1.0070150286548 -0.010600735143116 0)
(1.0076544035733 -0.010964345195608 0)
(1.0083328736912 -0.011330871654161 0)
(1.0090105531933 -0.011644356740221 0)
(1.0097444007271 -0.011988270942831 0)
(1.0104464395147 -0.012234560300129 0)
(1.0112455138353 -0.012575970029225 0)
(1.0119471607855 -0.012719450810908 0)
(1.0128406967977 -0.013107508003923 0)
(1.0000006355733 -0.00031111091087852 0)
(1.0000339468618 -0.00093547078394738 0)
(1.000098088961 -0.0015605740357248 0)
(1.0001942707665 -0.0021861840374301 0)
(1.0003232404288 -0.0028124871662843 0)
(1.0004853698167 -0.0034388689414519 0)
(1.0006806773479 -0.0040637039035028 0)
(1.0009090906233 -0.0046854561052665 0)
(1.0011703765135 -0.0053031928863734 0)
(1.0014645681103 -0.0059168844859286 0)
(1.0017915113758 -0.006526252865469 0)
(1.0021515428703 -0.0071310725215766 0)
(1.0025442675278 -0.0077297412474788 0)
(1.0029701640469 -0.0083213311418266 0)
(1.0034279852217 -0.0089029242081123 0)
(1.0039186453447 -0.0094742213466586 0)
(1.0044394733489 -0.010030949833631 0)
(1.0049929935692 -0.010575132541461 0)
(1.0055739017787 -0.011099554180479 0)
(1.0061886196776 -0.011611446430695 0)
(1.0068260011706 -0.012096421565135 0)
(1.007501075938 -0.0125733333517 0)
(1.0081895052208 -0.013010759404346 0)
(1.0089255546159 -0.013453944493605 0)
(1.0096555337236 -0.013831753666624 0)
(1.0104570282242 -0.014249907205524 0)
(1.0112110959196 -0.014545925008662 0)
(1.0120928772118 -0.014964091093017 0)
(1.012838876714 -0.015132920242443 0)
(1.0138420235669 -0.015612985661185 0)
(1.0000006799995 -0.00035814639392597 0)
(1.0000358280425 -0.0010762931498761 0)
(1.0001034246398 -0.0017950361576754 0)
(1.0002047416507 -0.0025147529266359 0)
(1.0003406241502 -0.0032360817420986 0)
(1.0005115795466 -0.0039584248656744 0)
(1.0007177329704 -0.0046797222798059 0)
(1.000959105394 -0.0053979654501475 0)
(1.0012354988631 -0.0061120244093638 0)
(1.0015470527969 -0.0068220484324349 0)
(1.0018936691525 -0.0075279455728952 0)
(1.0022759010126 -0.0082295845482827 0)
(1.0026933684708 -0.0089249813476801 0)
(1.0031468387842 -0.0096128617367503 0)
(1.003634854091 -0.010289533071952 0)
(1.0041587762631 -0.010954672387357 0)
(1.0047153443633 -0.011603255284779 0)
(1.0053080612608 -0.012238170388445 0)
(1.0059303227044 -0.012850912555212 0)
(1.0065907434961 -0.013450766677702 0)
(1.0072752116455 -0.014020069932894 0)
(1.0080035243887 -0.014582200791191 0)
(1.008744507904 -0.01509804313817 0)
(1.0095428732254 -0.015623554437064 0)
(1.0103294310163 -0.016070250323468 0)
(1.0112049987805 -0.016569179619986 0)
(1.0120158523441 -0.016918596093057 0)
(1.0129891880624 -0.017421469625715 0)
(1.0137840263514 -0.017616976996341 0)
(1.0149095943487 -0.018200012148246 0)
(1.0000007229278 -0.00040483727965568 0)
(1.0000375786653 -0.0012158933599125 0)
(1.0001083736859 -0.0020273301014495 0)
(1.000214443128 -0.0028403504470875 0)
(1.0003567398933 -0.0036561845726438 0)
(1.0005359281382 -0.0044742950607796 0)
(1.000752261809 -0.0052921394127675 0)
(1.0010058780335 -0.0061071719997722 0)
(1.0012966315195 -0.0069180569805672 0)
(1.0016247940561 -0.0077251879058308 0)
(1.0019903455194 -0.0085287382171193 0)
(1.00239409675 -0.0093287205788324 0)
(1.0028357052421 -0.010122735157499 0)
(1.0033162806581 -0.010909108787169 0)
(1.0038341584217 -0.011683277275224 0)
(1.0043912227902 -0.012444913424749 0)
(1.0049835936117 -0.013188208581645 0)
(1.0056158848907 -0.013917110643289 0)
(1.0062800986553 -0.014621750372719 0)
(1.0069872992757 -0.015313799899399 0)
(1.0077201582192 -0.015971939590305 0)
(1.0085037508385 -0.016624664222039 0)
(1.0092994448915 -0.017224148076979 0)
(1.0101634596828 -0.017838418417047 0)
(1.0110096465672 -0.018359353662488 0)
(1.0119643457626 -0.018946579236082 0)
(1.0128357432961 -0.019353975346389 0)
(1.0139081219462 -0.019950729597117 0)
(1.0147557112537 -0.020175180628448 0)
(1.0160150429991 -0.020873660798017 0)
(1.0000007623566 -0.00045086559674178 0)
(1.0000391060609 -0.0013533195195306 0)
(1.0001126704267 -0.002255876188037 0)
(1.0002228516088 -0.0031607764064984 0)
(1.0003707198419 -0.0040699837770723 0)
(1.0005571160174 -0.0049830687278876 0)
(1.0007824447298 -0.0058969648784171 0)
(1.0010469820325 -0.0068085314758117 0)
(1.0013506541996 -0.0077162235614812 0)
(1.001693891723 -0.0086207474546647 0)
(1.0020767766189 -0.009522625644377 0)
(1.0025004181374 -0.01042206868805 0)
(1.0029645382034 -0.011316235192694 0)
(1.0034706420281 -0.012203006600705 0)
(1.0040168729069 -0.013076860668411 0)
(1.0046057101721 -0.013937490262083 0)
(1.0052326446342 -0.014778278703939 0)
(1.0059035242807 -0.015604430131981 0)
(1.0066088987433 -0.016404642709773 0)
(1.0073625085392 -0.017193315500623 0)
(1.0081436254612 -0.017945093225951 0)
(1.0089830403481 -0.018694187963657 0)
(1.0098341757791 -0.019383046334156 0)
(1.0107656561031 -0.020093142796249 0)
(1.0116731993814 -0.020694405569377 0)
(1.0127105845933 -0.021378344249204 0)
(1.0136452142401 -0.021849261880363 0)
(1.0148226237951 -0.022550252621753 0)
(1.0157262912258 -0.02280702589425 0)
(1.0171290593281 -0.023634866192121 0)
(1.0000007966478 -0.00049586324797996 0)
(1.0000403258491 -0.0014874734415142 0)
(1.0001160715717 -0.002478853181159 0)
(1.0002294877642 -0.0034734890843554 0)
(1.0003817699418 -0.0044742174554129 0)
(1.0005739532233 -0.0054807667302053 0)
(1.0008066130734 -0.0064895131659309 0)
(1.0010801854831 -0.0074966709820727 0)
(1.001394687842 -0.0085004890919296 0)
(1.0017507335189 -0.0095020563938679 0)
(1.0021485332245 -0.010502332246499 0)
(1.0025895303407 -0.011501780632103 0)
(1.0030735452815 -0.012497106466882 0)
(1.0036025235337 -0.013485702478504 0)
(1.0041744484241 -0.014461024426483 0)
(1.0047924519035 -0.01542280376333 0)
(1.0054514194437 -0.016363619369439 0)
(1.0061585255616 -0.017290108991152 0)
(1.0069028671969 -0.018189505348646 0)
(1.0077010257298 -0.019079239833892 0)
(1.0085287969234 -0.019929602518725 0)
(1.0094229962468 -0.020781055228829 0)
(1.0103288187499 -0.021565413947164 0)
(1.0113279280497 -0.022378835753005 0)
(1.01229713312 -0.02306719372252 0)
(1.0134190439137 -0.023856929531127 0)
(1.0144183832382 -0.024397929882974 0)
(1.015705086475 -0.025214494839954 0)
(1.0166675407705 -0.025508350107257 0)
(1.0182216536755 -0.026480973200877 0)
(1.0000008240931 -0.00053943927298183 0)
(1.0000411642365 -0.0016171919428282 0)
(1.0001183663832 -0.0026943332522622 0)
(1.0002339371882 -0.0037757936136838 0)
(1.00038920334 -0.0048654150422611 0)
(1.0005854079662 -0.0059631351399176 0)
(1.0008233150294 -0.0070647479797579 0)
(1.0011035376189 -0.0081657820735596 0)
(1.0014262042323 -0.009264289735347 0)
(1.0017921295435 -0.010361811588093 0)
(1.0022016839287 -0.011459835138525 0)
(1.0026566672973 -0.012559132044341 0)
(1.0031570482521 -0.013655960091722 0)
(1.0037052294292 -0.014747177666569 0)
(1.0042991087313 -0.015825193470703 0)
(1.0049424705406 -0.016889768783292 0)
(1.0056297093085 -0.017932747577778 0)
(1.0063693026942 -0.018962301574582 0)
(1.0071490679673 -0.019964284462252 0)
(1.0079883679129 -0.02095931522589 0)
(1.0088597764599 -0.021913233216449 0)
(1.0098059999592 -0.022872993566114 0)
(1.0107643828197 -0.023759317098818 0)
(1.0118293470358 -0.024683673901302 0)
(1.0128593572958 -0.025466663489554 0)
(1.0140653456377 -0.026371465443409 0)
(1.0151300426126 -0.026990352357809 0)
(1.0165275432677 -0.027934134045866 0)
(1.0175507171263 -0.028271126481087 0)
(1.0192619995089 -0.029405313772341 0)
(1.0000008434201 -0.00058120503326075 0)
(1.0000415613925 -0.001741321340689 0)
(1.0001193830774 -0.0029004047741336 0)
(1.0002358633019 -0.0040650127175425 0)
(1.0003924635604 -0.0052401160910671 0)
(1.0005906434194 -0.0064259122985627 0)
(1.0008313687379 -0.0076175969570643 0)
(1.0011154414403 -0.0088099823203866 0)
(1.0014431203697 -0.010000938826725 0)
(1.0018154324816 -0.011192526827625 0)
(1.002232942007 -0.012386852692813 0)
(1.0026978112225 -0.013585050382283 0)
(1.0032102231516 -0.01478295297021 0)
(1.0037730166132 -0.015976840479043 0)
(1.0043841356212 -0.017158091240796 0)
(1.0050479206205 -0.018326451938527 0)
(1.0057585465152 -0.019473193902489 0)
(1.006525526962 -0.02060799146435 0)
(1.0073359555078 -0.021715623491617 0)
(1.0082113430157 -0.022819738105535 0)
(1.0091221773637 -0.023882118939901 0)
(1.0101155904011 -0.024955742584555 0)
(1.0111235571966 -0.025950933949776 0)
(1.0122496665336 -0.026993267616096 0)
(1.0133400558313 -0.027879994457259 0)
(1.0146245544596 -0.028907389113414 0)
(1.015759658447 -0.029616747414103 0)
(1.0172580786268 -0.030692969979264 0)
(1.018358338688 -0.031092177059861 0)
(1.0202183880668 -0.032397923690218 0)
(1.0000008537761 -0.00062079756022552 0)
(1.0000414758432 -0.001858788449935 0)
(1.0001190003073 -0.0030952880942012 0)
(1.0002350262134 -0.0043386446311734 0)
(1.0003911508175 -0.005595069444433 0)
(1.0005890531958 -0.0068650693641949 0)
(1.0008299086368 -0.0081432339759643 0)
(1.0011147153145 -0.0094236392186348 0)
(1.0014438760588 -0.010703992160228 0)
(1.0018186391086 -0.011986938852673 0)
(1.0022397855759 -0.013275289466032 0)
(1.0027098494622 -0.01457060042968 0)
(1.0032292707501 -0.0158683028706 0)
(1.003801326136 -0.017164087157463 0)
(1.0044240901518 -0.01844830297277 0)
(1.0051024224689 -0.019720702106587 0)
(1.0058304640239 -0.02097208157419 0)
(1.006618602611 -0.022213681302152 0)
(1.0074536390199 -0.02342942319282 0)
(1.0083587339878 -0.024645900864826 0)
(1.0093032864093 -0.02582123058901 0)
(1.0103375530062 -0.027013913769319 0)
(1.0113903690273 -0.028124699560545 0)
(1.0125714811321 -0.029291985818274 0)
(1.0137193245293 -0.030291527370211 0)
(1.0150764951173 -0.031450017928161 0)
(1.0162819272198 -0.032261235613981 0)
(1.0178754800137 -0.033479698385585 0)
(1.0190577526298 -0.033955509250012 0)
(1.0210630880429 -0.035446095888383 0)
(1.0000008544566 -0.0006578946778799 0)
(1.0000408849385 -0.0019686451308292 0)
(1.00011715584 -0.0032774128760559 0)
(1.0002312998562 -0.0045944770355724 0)
(1.0003850456954 -0.0059273862613492 0)
(1.0005802902282 -0.0072770033023599 0)
(1.0008184204878 -0.0086373119662354 0)
(1.0011006343926 -0.010001641295726 0)
(1.0014274867919 -0.011367557228468 0)
(1.0018004524892 -0.012738352798885 0)
(1.0022205414739 -0.014117621441493 0)
(1.0026906672419 -0.015507401648183 0)
(1.00321154908 -0.016902752306732 0)
(1.0037869163132 -0.018298781637275 0)
(1.0044150150645 -0.019684819083422 0)
(1.0051012463225 -0.021060673899281 0)
(1.0058397857848 -0.022416736891426 0)
(1.0066419187149 -0.023765950934205 0)
(1.0074942656528 -0.025091474936604 0)
(1.0084216410104 -0.026422993413182 0)
(1.0093925495082 -0.027714985993436 0)
(1.0104603104272 -0.02903159803673 0)
(1.0115509585168 -0.030263915718717 0)
(1.0127802105524 -0.031563336612615 0)
(1.0139793548734 -0.032683863830795 0)
(1.0154033642639 -0.033983029317382 0)
(1.0166744714405 -0.034906353793737 0)
(1.0183590533795 -0.036279300776489 0)
(1.019621024247 -0.036843399944672 0)
(1.0217694829691 -0.03853516408779 0)
(1.000000845103 -0.00069222520525311 0)
(1.000039782699 -0.0020700964314894 0)
(1.0001138363523 -0.0034454661637305 0)
(1.0002246563733 -0.0048306590181272 0)
(1.0003740928054 -0.006234639668759 0)
(1.0005642533155 -0.0076586674026763 0)
(1.0007967335166 -0.0090961266186048 0)
(1.0010729292522 -0.010539597065605 0)
(1.0013935488403 -0.011986527649317 0)
(1.0017602936247 -0.013440913051181 0)
(1.0021744059184 -0.014907201736645 0)
(1.0026391791384 -0.016387972107158 0)
(1.0031556221197 -0.017877946856293 0)
(1.0037279253254 -0.019371673654176 0)
(1.0043545339314 -0.020857485719057 0)
(1.0050414115126 -0.022335310246372 0)
(1.0057828173262 -0.023795214984401 0)
(1.0065909680132 -0.02525196750392 0)
(1.0074523768204 -0.026688088007002 0)
(1.0083935571088 -0.028136463303846 0)
(1.0093822285 -0.029548033150183 0)
(1.0104748229087 -0.030992661151824 0)
(1.011594746371 -0.032351787274798 0)
(1.0128637155415 -0.03378992591654 0)
(1.0141061569761 -0.03503919512985 0)
(1.0155893691255 -0.036488296836671 0)
(1.0169194088022 -0.037533978862365 0)
(1.0186889053308 -0.039073596664384 0)
(1.0200261990298 -0.039738511493764 0)
(1.0223131131486 -0.041647466574665 0)
(1.0000008259087 -0.00072357945118442 0)
(1.0000381798709 -0.0021625325364273 0)
(1.0001090731535 -0.0035984425244124 0)
(1.0002151552316 -0.0050457671319391 0)
(1.0003583829345 -0.0065149470315172 0)
(1.000541062362 -0.0080076717204783 0)
(1.0007649891948 -0.0095167376441451 0)
(1.0010317503315 -0.011033979667323 0)
(1.0013422034819 -0.012556753875784 0)
(1.0016982688116 -0.014089802753091 0)
(1.0021014153733 -0.015638491416975 0)
(1.002555306699 -0.017205992462813 0)
(1.0030612425715 -0.01878673281545 0)
(1.0036238710962 -0.02037473491536 0)
(1.004241855501 -0.021957371054215 0)
(1.0049217305797 -0.023534757536165 0)
(1.0056578790879 -0.025096724542258 0)
(1.0064634699537 -0.026659984499864 0)
(1.0073249684861 -0.028206547062321 0)
(1.0082706237846 -0.029772607067293 0)
(1.0092674564028 -0.031305694499333 0)
(1.0103750706258 -0.032881452531184 0)
(1.0115143831333 -0.034371778808497 0)
(1.0128131768222 -0.035954361869139 0)
(1.0140892579162 -0.037339491692035 0)
(1.015622260808 -0.038947121212037 0)
(1.0170025022319 -0.040125186954191 0)
(1.0188487294799 -0.041843177819035 0)
(1.0202547202859 -0.042621887057913 0)
(1.0226726929176 -0.044763152924872 0)
(1.000000797234 -0.00075181452809222 0)
(1.0000361014703 -0.0022455452541868 0)
(1.0001029391557 -0.0037356725098071 0)
(1.0002029377441 -0.0052388461201111 0)
(1.0003381426851 -0.0067670225106679 0)
(1.0005110415296 -0.0083223472595234 0)
(1.0007236174482 -0.0098970456824001 0)
(1.0009776357915 -0.011482218559838 0)
(1.0012740947912 -0.013075152896737 0)
(1.0016151170011 -0.01468137411379 0)
(1.0020023867434 -0.016307213860088 0)
(1.0024399133675 -0.017956486392907 0)
(1.00292928296 -0.019623367381492 0)
(1.0034755807167 -0.021301398851772 0)
(1.0040777051663 -0.022977040599393 0)
(1.0047427501702 -0.024650673323711 0)
(1.0054652587203 -0.026311978439188 0)
(1.0062593486673 -0.027979725291702 0)
(1.0071114880372 -0.029635540169946 0)
(1.0080516732256 -0.031319031482363 0)
(1.0090462998177 -0.032974458315035 0)
(1.0101581792449 -0.034683328290017 0)
(1.0113058735122 -0.036308131295984 0)
(1.0126232918647 -0.038039813742612 0)
(1.0139218626917 -0.039567006182327 0)
(1.0154936333174 -0.041340895214791 0)
(1.0169135103701 -0.042660865665839 0)
(1.018826359101 -0.044568260064521 0)
(1.0202921176644 -0.045473679353686 0)
(1.022830863094 -0.047860906388533 0)
(1.0000007598421 -0.00077685276220785 0)
(1.0000335828137 -0.0023189233398464 0)
(1.0000955389815 -0.0038568179697405 0)
(1.000188212514 -0.0054094084400908 0)
(1.0003137157036 -0.006990184805464 0)
(1.0004746925221 -0.0086017641100892 0)
(1.0006732968875 -0.010235821619258 0)
(1.0009114556388 -0.011882740012058 0)
(1.0011902992237 -0.013539761938903 0)
(1.0015121266422 -0.015213217565437 0)
(1.0018788215571 -0.016910445967431 0)
(1.0022946964604 -0.018635937095126 0)
(1.0027616170744 -0.020383669527462 0)
(1.0032850612664 -0.02214674373738 0)
(1.0038641870831 -0.023910781444083 0)
(1.0045066023438 -0.025676481504212 0)
(1.0052070661129 -0.027433493366155 0)
(1.0059805810753 -0.029202716823529 0)
(1.006813712866 -0.030965542273482 0)
(1.0077381046194 -0.032765088394229 0)
(1.0087197036271 -0.03454246526978 0)
(1.0098243719442 -0.036385216442247 0)
(1.0109686225823 -0.038146449874543 0)
(1.0122923096203 -0.04003067331663 0)
(1.0136008987721 -0.0417048599915 0)
(1.015198861659 -0.043651728287406 0)
(1.0166461164974 -0.045122300633352 0)
(1.0186138647381 -0.04722974350672 0)
(1.0201285842602 -0.048274419997049 0)
(1.0227752471713 -0.050920058628666 0)
(1.0000007141301 -0.00079867476270061 0)
(1.000030661377 -0.0023826308723709 0)
(1.0000869896684 -0.0039618358984155 0)
(1.0001712227507 -0.0055573846706205 0)
(1.0002855175375 -0.0071842999107261 0)
(1.0004326399573 -0.0088456781664648 0)
(1.000614892833 -0.010532669804407 0)
(1.0008343389219 -0.012234952422487 0)
(1.0010922365111 -0.013949744225721 0)
(1.0013910231046 -0.015684181167029 0)
(1.0017327700597 -0.017446649042128 0)
(1.0021220245636 -0.019242328858176 0)
(1.0025609379005 -0.021065084310369 0)
(1.0030552963625 -0.022907589552846 0)
(1.0036045774944 -0.024754751445898 0)
(1.0042167793374 -0.026607575576767 0)
(1.0048870153483 -0.028455859823292 0)
(1.0056309473071 -0.030322603840119 0)
(1.0064355168346 -0.032189195652876 0)
(1.0073336013364 -0.034102270323837 0)
(1.0082912492402 -0.035999989644551 0)
(1.0093766729132 -0.03797609728156 0)
(1.0105052923545 -0.039874332440556 0)
(1.0118218137039 -0.041913204070834 0)
(1.0131272004215 -0.04373774522586 0)
(1.0147367199878 -0.045863138137815 0)
(1.0161979545164 -0.047491228308008 0)
(1.0182059513937 -0.049809452446312 0)
(1.0197584765046 -0.051005175525208 0)
(1.0224971301485 -0.053921801353876 0)
(1.0000006591467 -0.0008173161534506 0)
(1.0000273750988 -0.0024367882006955 0)
(1.0000774154613 -0.004050930983145 0)
(1.0001522318571 -0.0056830346000355 0)
(1.0002539980874 -0.0073496402842306 0)
(1.0003855584631 -0.0090543334327606 0)
(1.0005493524571 -0.010787781042511 0)
(1.0007475532744 -0.012538971312493 0)
(1.000981550683 -0.014305108971993 0)
(1.0012538517269 -0.016094098529599 0)
(1.0015667086211 -0.017915401893337 0)
(1.0019247852402 -0.019774867747866 0)
(1.0023305671192 -0.021666368750491 0)
(1.0027899944069 -0.023582121460934 0)
(1.0033030324935 -0.025506539914184 0)
(1.0038777952063 -0.027440799950933 0)
(1.0045100852101 -0.029375192141337 0)
(1.0052156754661 -0.03133450732252 0)
(1.0059825371254 -0.033300683568823 0)
(1.0068437730734 -0.035323395710121 0)
(1.0077668190329 -0.03733864375348 0)
(1.0088204525006 -0.039445848743252 0)
(1.0099214669982 -0.041480128783275 0)
(1.0112161161235 -0.043673981261067 0)
(1.0125056259179 -0.045650022861896 0)
(1.0141091733154 -0.0479581262822 0)
(1.015571808644 -0.049746598218036 0)
(1.0175984259054 -0.052285345396894 0)
(1.0191799348195 -0.05363879748617 0)
(1.0219820789045 -0.056836341033061 0)
(1.0000005928697 -0.00083289006253103 0)
(1.0000237934638 -0.002481728432606 0)
(1.0000670123818 -0.0041245987624549 0)
(1.0001316172295 -0.0057869292981321 0)
(1.0002197542476 -0.0074867815018168 0)
(1.0003342844107 -0.0092282577246513 0)
(1.000477780994 -0.011001591154197 0)
(1.0006525205752 -0.012795088678942 0)
(1.0008600625647 -0.014605949961639 0)
(1.0011028915677 -0.016442797105783 0)
(1.0013834434137 -0.018316204942142 0)
(1.0017063030482 -0.020232636036011 0)
(1.0020743977195 -0.02218612592441 0)
(1.0024935342916 -0.024168307602873 0)
(1.0029645271977 -0.026163406662359 0)
(1.0034950517311 -0.028172421164167 0)
(1.0040823758911 -0.030186741231581 0)
(1.0047411782404 -0.032232176958393 0)
(1.0054620348919 -0.034292431341001 0)
(1.0062758739605 -0.036418723055346 0)
(1.0071546591949 -0.038547085533368 0)
(1.008163318768 -0.040780089903013 0)
(1.0092258690242 -0.042947541372969 0)
(1.010482473625 -0.04529269747076 0)
(1.0117447928268 -0.047419141401127 0)
(1.0133232716483 -0.049909379400117 0)
(1.0147761239457 -0.051858148652373 0)
(1.0167973321877 -0.054618661376025 0)
(1.0183941042417 -0.056129733713739 0)
(1.0212318649486 -0.059605335187239 0)
(1.0000005146754 -0.00084564522368854 0)
(1.0000200966742 -0.0025182546210699 0)
(1.0000562388496 -0.0041840870786763 0)
(1.000110135357 -0.0058705942503543 0)
(1.0001838149346 -0.0075973470551827 0)
(1.0002801237893 -0.009369087002287 0)
(1.0004018109952 -0.01117574981396 0)
(1.0005512615031 -0.013004942429626 0)
(1.0007302175609 -0.01485377099295 0)
(1.0009410221888 -0.0167314710175 0)
(1.0011862972504 -0.018649777551887 0)
(1.0014703541078 -0.020615795764066 0)
(1.0017967528449 -0.022624001911206 0)
(1.0021708433912 -0.024665374145844 0)
(1.0025948007831 -0.026724302139337 0)
(1.0030750213607 -0.028801040043063 0)
(1.0036114316336 -0.030888788191394 0)
(1.0042155685974 -0.033013065091138 0)
(1.0048835070625 -0.035161273765208 0)
(1.005639366252 -0.037383417749552 0)
(1.0064663690181 -0.039619902867257 0)
(1.0074155014916 -0.041970789109616 0)
(1.0084325749489 -0.04426846646491 0)
(1.0096305983506 -0.046757747769607 0)
(1.0108617184907 -0.049033405276231 0)
(1.0123860144069 -0.051703491738927 0)
(1.0138349958863 -0.053809467334684 0)
(1.0158096051999 -0.056804579285276 0)
(1.0174441642999 -0.058447356664539 0)
(1.0202572047729 -0.062265545288181 0)
(1.0000003983816 -0.00085603773482673 0)
(1.0000164354257 -0.0025479763703004 0)
(1.0000456244871 -0.0042321620108329 0)
(1.0000887417458 -0.0059381420035929 0)
(1.0001474596504 -0.0076868262212723 0)
(1.0002244943125 -0.0094836490677767 0)
(1.0003229403847 -0.011318561205403 0)
(1.0004455162139 -0.013178677674657 0)
(1.0005941300901 -0.015061042962816 0)
(1.000770824198 -0.016975256330483 0)
(1.0009782542964 -0.018934006134657 0)
(1.0012202627392 -0.020945035586891 0)
(1.001501122674 -0.023003556584699 0)
(1.0018257173909 -0.025100068306307 0)
(1.0021980047335 -0.027219724018595 0)
(1.0026227154072 -0.029361784492956 0)
(1.0031031571148 -0.031522205507532 0)
(1.0036460732013 -0.033724905107886 0)
(1.0042552360931 -0.03596353959695 0)
(1.0049434636342 -0.038283197792285 0)
(1.005712245545 -0.040635604372038 0)
(1.0065866481909 -0.043108613165385 0)
(1.0075537394654 -0.045553343797819 0)
(1.008668057871 -0.04819476201492 0)
(1.0098710894236 -0.050648671340942 0)
(1.0112969173296 -0.05351646740262 0)
(1.0127648657724 -0.055817941721283 0)
(1.0146212671738 -0.05910758421033 0)
(1.0163840271313 -0.060910201894621 0)
(1.0190979459374 -0.065377271694991 0)
(1.0000001313159 -0.00086545213798407 0)
(1.0000120232534 -0.0025751002169257 0)
(1.0000340702472 -0.0042769911463686 0)
(1.0000662025769 -0.0060029510730483 0)
(1.0001098324273 -0.007775146523781 0)
(1.0001672728875 -0.0095995235064633 0)
(1.0002419219124 -0.011465478089869 0)
(1.0003371236599 -0.013359383252303 0)
(1.0004552906034 -0.015278181364239 0)
(1.0005981944979 -0.017232294530457 0)
(1.0007680971507 -0.019235886267742 0)
(1.0009682553063 -0.021297413233137 0)
(1.0012030829167 -0.023412667344737 0)
(1.0014769727178 -0.025571418113034 0)
(1.0017952261217 -0.027759604415828 0)
(1.0021619594862 -0.02997561687989 0)
(1.0025831847977 -0.032218976662601 0)
(1.0030627276552 -0.034511725566817 0)
(1.0036099928179 -0.036855847267831 0)
(1.004229233167 -0.039288133565703 0)