/*--------------------------------*- C++ -*----------------------------------*\
| =========                 |                                                 |
| \\      /  F ield         | OpenFOAM: The Open Source CFD Toolbox           |
|  \\    /   O peration     | Version:  2112                                  |
|   \\  /    A nd           | Website:  www.openfoam.com                      |
|    \\/     M anipulation  |                                                 |
\*---------------------------------------------------------------------------*/
FoamFile
{
    version     2.0;
    format      ascii;
    arch        "LSB;label=32;scalar=64";
    class       volScalarField;
    location    "9";
    object      p;
}
// * * * * * * * * * * * * * * * * * * * * * * * * * * * * * * * * * * * * * //

dimensions      [0 2 -2 0 0 0 0];

internalField   nonuniform List<scalar> 
22000
(
0.0095802497693656
0.0095577651400902
0.009511352929471
0.0094398048305979
0.0093426124688405
0.0092198255899331
0.0090717428771791
0.0088987005571319
0.0087009757411789
0.0084787918195838
0.0082323692857445
0.0079619665385879
0.0076678859137857
0.0073504721584989
0.0070100999268865
0.0066471800914729
0.0062621456450071
0.0058554729093278
0.0054276530414573
0.004979238483751
0.0045107763856564
0.0040229092045697
0.0035162236566697
0.0029914739252502
0.0024492479297164
0.0018904682827748
0.0013156425670619
0.00072599089151466
0.00012172112567718
-0.0004953968922159
0.01000169795133
0.0099778949262031
0.0099297454599719
0.0098561651671629
0.0097566200448272
0.009631087187607
0.0094798080775126
0.0093030918603469
0.0091012078058445
0.0088743774531338
0.0086228163721474
0.0083467738787714
0.0080465396516857
0.0077224471480029
0.0073748592872952
0.0070041801919353
0.0066108334205671
0.006195294614257
0.0057580446135993
0.0052996431532153
0.0048206211648668
0.0043216433314701
0.0038032668200772
0.0032662967065829
0.0027112605502989
0.0021391810096551
0.001550418650637
0.00094639277575071
0.00032690121691065
-0.00030588178025531
0.010775908403207
0.010751089027104
0.010700983710196
0.01062455932173
0.010521314220793
0.010391228352472
0.010234526458275
0.010051495183316
0.0098423840576932
0.0096073994028998
0.0093467418455566
0.0090606454841648
0.0087493823551771
0.0084132704324204
0.0080526543772491
0.0076679263004375
0.0072594911621534
0.0068278204726291
0.0063733739775227
0.0058967226421009
0.0053983666219283
0.0048790109349842
0.0043391570491398
0.0037797056380954
0.0032010717018888
0.002604482659708
0.001990038584289
0.0013596094662347
0.00071225738781935
5.1085485163391e-05
0.011855346612661
0.011829380371122
0.011776962284242
0.011697021639525
0.011589042785856
0.011453006973525
0.011289136270342
0.011097703631503
0.010878936718787
0.010633017613489
0.010360120724828
0.010060454437785
0.0097342624139427
0.0093818372048515
0.0090034933412835
0.0085996011070558
0.0081705335314961
0.0077167505869137
0.0072386756272467
0.0067368898532419
0.006211842962191
0.0056642926403401
0.0050946540922789
0.0045039597551232
0.0038924546859377
0.0032616507139476
0.0026112550493257
0.0019437576113727
0.0012571173539882
0.00055572573735147
0.013199177450986
0.01317188866685
0.013116794607943
0.013032770676137
0.012919270998486
0.012776267607398
0.012603973598626
0.012402641765653
0.012172468322814
0.011913598783452
0.011626166929978
0.011310340461811
0.010966318470724
0.010594352364806
0.010194708780457
0.0097677203126831
0.0093137083313324
0.0088331072618173
0.0083262817405875
0.0077938148625496
0.0072360782207949
0.0066538857458235
0.0060475270604414
0.0054181921955906
0.0047658901285871
0.0040924884407654
0.0033971706456692
0.0026832242094719
0.0019471793648395
0.0011951254187277
0.014771739088149
0.014743024756224
0.014685043953655
0.014596612505289
0.014477146492082
0.014326599374677
0.014145163871504
0.013933059255966
0.013690435297678
0.013417384754334
0.013113982772141
0.012780337178133
0.012416581263904
0.012022903883745
0.011599499820485
0.011146641622933
0.01066457245005
0.010153680120142
0.0096142408362754
0.0090468235987381
0.0084516866134072
0.0078296956834259
0.0071809680669109
0.0065068708503651
0.0058071073635462
0.0050839670747538
0.0043359792198706
0.0035674012304038
0.0027730101841462
0.0019609767180981
0.016541051129087
0.016510895473335
0.016449991604767
0.016357091791042
0.016231567251075
0.016073343272565
0.015882579176985
0.015659444707169
0.015404024977222
0.015116340400533
0.014796385930162
0.014444186427641
0.014059783650252
0.013643277328232
0.013194760616322
0.012714417268806
0.012202378686069
0.011658957478636
0.011084303590329
0.010478947377763
0.0098429893472456
0.0091773335545428
0.008481869496705
0.0077581495442421
0.007005491779724
0.0062266616436326
0.0054193943386194
0.0045890715451523
0.0037283831634473
0.0028479305581027
0.018477624924339
0.018446098221828
0.01838240769284
0.018285240482477
0.018153916693922
0.017988323001143
0.017788570830005
0.017554762530401
0.01728689817497
0.016984903699344
0.016648669293995
0.016278110168372
0.015873146543665
0.01543375748595
0.014959899060038
0.014451631070634
0.013908932473028
0.013332004112042
0.012720823204489
0.01207584723743
0.011396964812308
0.010685093015297
0.0099398266769566
0.0091628995229069
0.0083531548866181
0.0075138726190049
0.0066418436116802
0.0057437092639706
0.0048097293621321
0.0038532499837427
0.020553712251246
0.020520967808791
0.020454794664898
0.020353815618317
0.020217294006154
0.020045066707209
0.019837181575581
0.019593654478268
0.019314378701702
0.018999161883945
0.018647762720228
0.018259957342122
0.017835511081231
0.01737424675695
0.016875943164263
0.01634049540947
0.015767682984119
0.015157550874217
0.014509848957419
0.013824917734791
0.013102369561879
0.012343096614157
0.011546321047568
0.010713936830171
0.0098442097497573
0.0089409560371038
0.0079998632000081
0.0070289493338065
0.0060156962727523
0.0049764596814717
0.022742892358263
0.022709161316138
0.022640967174401
0.022536871234745
0.022396074906284
0.022218353828956
0.022003676266882
0.021751952309965
0.021462946559789
0.021136324156968
0.02077168477087
0.020368634679366
0.019926749062535
0.019445656261637
0.018924914336044
0.018364208541463
0.017763066922731
0.01712132769082
0.016438452148166
0.01571460961919
0.0149490643352
0.014142631001862
0.013294071976728
0.012405401107315
0.011474192068883
0.010504791830602
0.0094916039980263
0.0084441130689522
0.0073466701735643
0.0062188560930481
0.0250199042308
0.024985487594991
0.024915875750944
0.024809572810827
0.024665713863067
0.024484002422202
0.024264312029443
0.024006428899492
0.0237099682865
0.023374429659519
0.022999226844797
0.022583765735776
0.022127395950849
0.021629512193421
0.021089407004859
0.020506507745955
0.019880036259802
0.019209566837788
0.018494207257776
0.017733889735896
0.016927455993386
0.016075570697194
0.015176453128567
0.014232166262857
0.01323948573646
0.012203248233411
0.011116389405366
0.0099898874953359
0.0088045637706861
0.0075833402668231
0.027360648056693
0.027325905772202
0.027255600070021
0.02714818298076
0.027002719236505
0.026818830751415
0.026596283615814
0.026334724817057
0.026033602299573
0.025692229166362
0.025309808935574
0.024885518635999
0.024418448868338
0.023907722654177
0.023352323483387
0.022751371682447
0.022103728826344
0.021408642080065
0.020664803205718
0.019871823783482
0.019028060865945
0.018133913006322
0.017187011082348
0.016189310881066
0.015136765470498
0.014034550370875
0.012874039621149
0.011667687743188
0.010392391599331
0.00907414760065
0.029742296524348
0.02970763436042
0.029637452972552
0.029530157559028
0.029384739704249
0.029200732626858
0.028977785500018
0.028715394466292
0.028412826140451
0.028069190552062
0.027683460614134
0.027254560064135
0.026781291323411
0.026262471003773
0.025696734106225
0.025082845705911
0.024419257652425
0.023704821622937
0.022937759189616
0.022117258652524
0.021241149476448
0.020309403839476
0.019319054673627
0.018271722537343
0.017162549204149
0.015996811322095
0.014764329092105
0.013478727523426
0.012113596312486
0.010696479874774
0.032143468226528
0.032109320663034
0.032040144769898
0.031934303361302
0.031790714113065
0.031608818472132
0.031388143154746
0.031128025764709
0.030827542206281
0.03048558793445
0.030100890692721
0.029672102421617
0.029197714557272
0.02867620862202
0.028105837742471
0.027484969239433
0.026811599140388
0.026084123227964
0.025300230543504
0.024458607055653
0.023556465693684
0.022593263985632
0.021565305094411
0.020473768796013
0.019312874452584
0.018087685847848
0.016786759582684
0.015423962289436
0.013970778806068
0.012455868297837
0.034544427610176
0.03451124295645
0.034443978184433
0.034340965010539
0.034201052830548
0.034023591762926
0.033807983278145
0.033553402543587
0.033258730518391
0.032922642865595
0.032543614639718
0.032120014917421
0.03165000922558
0.031131723622423
0.030563004077189
0.029941786860567
0.029265572288099
0.028532250381405
0.027738916038421
0.026883686120698
0.025963062544533
0.02497590820915
0.023917660885814
0.022788962026957
0.021582940553633
0.020304332323084
0.018940195182368
0.017504637254476
0.015966361357324
0.014355284974514
0.036927242153295
0.036895466771958
0.03683101424044
0.036732202035148
0.036597820962427
0.036427133301623
0.03621941613594
0.035973683527089
0.035688623754958
0.03536269426559
0.034994117224029
0.034580976254995
0.034121105331354
0.033612264814069
0.033051878254345
0.032437429172883
0.031765891933888
0.031034613526654
0.030240040868345
0.029379665868009
0.028449191758423
0.027446809779476
0.026366966319355
0.025209658786611
0.023966770194122
0.022642555752774
0.02122236470066
0.019720342730122
0.018101988067555
0.016398093641366
0.039275913097452
0.039245977621536
0.039185208209112
0.039091928026078
0.038964882366167
0.038803251841631
0.03860619364537
0.038372567117376
0.038100876335913
0.037789369711447
0.037436025051034
0.037038646845368
0.036594741348041
0.0361017040927
0.035556532726146
0.034956249530801
0.034297285461413
0.033576421613602
0.032789416548393
0.031933094619581
0.031002285473646
0.029994439587906
0.028902890101516
0.027726890811488
0.02645690234578
0.025096584199179
0.023629339185874
0.022069174582279
0.020377958196884
0.01858668211585
0.041576470320363
0.041548777053223
0.041492507070749
0.041406011069728
0.041288004274022
0.041137594925641
0.040953828446566
0.040735420395046
0.040480704977098
0.040187737434109
0.03985426759529
0.039477836663073
0.039055638081601
0.038584714395637
0.038061646451572
0.037482999924261
0.03684466075219
0.036142835214278
0.035372572842828
0.034530000406199
0.033609023657135
0.032606293508062
0.031513924910619
0.030330340641826
0.0290443625605
0.027658976467431
0.026155302540939
0.024547179850292
0.022792432045663
0.020921577982186
0.043817011044959
0.043791925923467
0.043740896997531
0.043662325165303
0.043554914260323
0.043417713512469
0.043249669248879
0.043049368180326
0.042814992756835
0.042544425722114
0.042235212579067
0.041884655396043
0.041489660422794
0.041046940482266
0.040552683007467
0.04000301394032
0.039393290997143
0.038719150070813
0.037974934589914
0.037156054784322
0.036255473221972
0.035268991652993
0.034187447251882
0.033008358149996
0.031718709114679
0.030320739578176
0.028792709031693
0.027148424124348
0.025340745946001
0.023400318393063
0.045987675604525
0.045965524939213
0.045920395785524
0.045850758575093
0.045755323744775
0.045633098426134
0.045482948147967
0.04530335089072
0.045092360226489
0.044847711163499
0.044566774802156
0.044246644529707
0.043883974696892
0.043475179166925
0.043016089861852
0.042502419821896
0.041929037188092
0.041291022255851
0.040582047520445
0.039796795685031
0.038927308709559
0.037968484256032
0.036909888008242
0.035748038093263
0.034468075554058
0.033071331561916
0.03153290827829
0.029865946835805
0.028017324256374
0.02601629986078
0.048080563873719
0.048061634082239
0.048022976785397
0.047963148108632
0.047880887679835
0.047775178402455
0.047644819920211
0.047488198515946
0.047303265025287
0.047087638994576
0.046838557507565
0.046552943079066
0.04622724506999
0.045857614705913
0.045439581450665
0.044968474988663
0.044438738371903
0.04384490873222
0.043180067504108
0.04243814915249
0.041610373879952
0.040690649910233
0.039667373420579
0.038535879102595
0.037279621356757
0.03589888614095
0.034366005109415
0.03269293985973
0.030819321256297
0.028769551591027
0.050089615096778
0.050074125918614
0.050042403398174
0.049993100182464
0.049925018457097
0.04983714074411
0.049728212300457
0.049596535369612
0.049439975379854
0.04925606512203
0.049041953577876
0.048794433298221
0.048509806904381
0.048184006603308
0.047812334966168
0.047389771154782
0.046910433766596
0.046368313795524
0.045756048754068
0.045066746238561
0.044291045927645
0.043421649322002
0.042446161120424
0.041358242213892
0.040140083321164
0.038790212766387
0.037278942422956
0.035618335885799
0.033740373317348
0.031662638702869
0.052010559876827
0.051998518786826
0.051973928782831
0.051935599822733
0.051882431709074
0.051813388525728
0.051727141732077
0.051621923099976
0.051495555535274
0.051345518829977
0.051168919075472
0.050962441153368
0.050722280792311
0.05044417535925
0.050123273791453
0.049754228797606
0.049330961181026
0.048846888358888
0.048294424983503
0.047665671846077
0.046951138277903
0.046141781649831
0.045225405394938
0.044192673242241
0.043026427952827
0.041720125943883
0.040244415175878
0.038606820299979
0.036739562964872
0.034662198587128
0.053841221808812
0.053832231086703
0.053814289713483
0.053786721692583
0.053748613536895
0.053698832076838
0.053635842347831
0.053557723413647
0.053462278344889
0.053347048717729
0.053209157503182
0.053045251573369
0.052851474083563
0.052623385233049
0.052355986925538
0.052043575683812
0.051679902630931
0.051257740926795
0.050769401441014
0.05020574011081
0.04955756218795
0.048813302465632
0.047962376125442
0.046990070696042
0.045884448386313
0.044626758713814
0.043199161263791
0.041578936250932
0.039716065531746
0.037602645953856
0.055582162577272
0.055576015425901
0.055563856212989
0.055546302195999
0.055522671209372
0.05549194400835
0.055452384143419
0.055401841662312
0.055337961183702
0.055258189206977
0.055159684469667
0.055039230676944
0.054893127707064
0.054716980265544
0.054505770193262
0.054253495697542
0.053953715779361
0.05359860610071
0.053180348638425
0.05268862221507
0.052114586339147
0.051444173586845
0.05066889777404
0.049767888506348
0.048737238376558
0.047541843466969
0.046190873954868
0.044612311075172
0.042808711400305
0.040549015185905
-0.0010869380643133
-0.0016501761783009
-0.0022225704675469
-0.0028030141994203
-0.0033906050998627
-0.0039845745560829
-0.0045842137568569
-0.0051888408253932
-0.0057977623049324
-0.0064102439892937
-0.0070255196818921
-0.0076428181834878
-0.008261377080178
-0.0088804413435508
-0.0094992603840769
-0.010117089273838
-0.010733191565058
-0.011346841067185
-0.01195732229313
-0.012563930918693
-0.013165973186794
-0.013762762565683
-0.014353614628916
-0.01493783905362
-0.015514750740675
-0.016083857465645
-0.016644689858727
-0.017196654965431
-0.017739122246249
-0.018271498380021
-0.018793244577697
-0.019303858953415
-0.019802864896063
-0.020289803545504
-0.020764238354697
-0.021225746811593
-0.021673934058588
-0.022108414874271
-0.022528843341991
-0.022934868347476
-0.023326200596878
-0.023702512381372
-0.024063590185797
-0.024409104607554
-0.024738957466633
-0.025052761833613
-0.02535063520791
-0.025632029884685
-0.025897548411489
-0.026146413558581
-0.00090967655271973
-0.0014817232854273
-0.0020639084583209
-0.0026542224431612
-0.0032515220156178
-0.0038551230242887
-0.0044645050745637
-0.0050791759306903
-0.0056985552488435
-0.0063219291816318
-0.0069485128074334
-0.0075775265264705
-0.0082082124224812
-0.0088398142374622
-0.0094715664601922
-0.010102698773045
-0.010732441504331
-0.011360027258067
-0.011984692536809
-0.012605680889799
-0.013222247483118
-0.01383366648585
-0.014439242137043
-0.015038326655309
-0.015630317462051
-0.016214423698066
-0.016789859719222
-0.017356003772967
-0.017912306705159
-0.018458221811991
-0.018993198908485
-0.019516698234355
-0.020028207524474
-0.020527237911203
-0.021013335903057
-0.021486065254689
-0.021945031512321
-0.022389844670647
-0.022820175639521
-0.023235673873394
-0.023636089943136
-0.024021092446147
-0.024390537518718
-0.024744065530028
-0.025081694819526
-0.025402926669864
-0.025708057889854
-0.025996168497588
-0.026267972244186
-0.026521220691016
-0.00057805916059845
-0.0011734959003129
-0.0017813155839684
-0.0023974454492772
-0.0030200013596857
-0.0036482943731553
-0.0042820648772854
-0.0049211048569134
-0.005564976789361
-0.0062129370895079
-0.0068641068150162
-0.0075176472072374
-0.0081727825008275
-0.0088287447982599
-0.0094847470739972
-0.01013999250892
-0.010793684978213
-0.011445030918187
-0.012093241056003
-0.012737535522471
-0.013377148063602
-0.014011326629726
-0.014639329985234
-0.015260417730567
-0.015873841797357
-0.016478917529636
-0.017074999390275
-0.017661456520859
-0.018237685219621
-0.018803106361173
-0.019357167657624
-0.01989933799501
-0.020429121203351
-0.020946044465914
-0.021449680762591
-0.021939616485197
-0.022415497646601
-0.022876961425481
-0.023323736539276
-0.023755496154525
-0.024172073088724
-0.024573140257511
-0.024958677403185
-0.02532827625228
-0.025682157320654
-0.026019633879451
-0.026341333669943
-0.026645699711968
-0.026933712937018
-0.027200471636105
-0.00011093198719021
-0.00074305401290582
-0.0013905951112065
-0.0020461819956516
-0.0027067979996106
-0.0033718114575563
-0.0040414099036247
-0.0047158313577293
-0.0053948585615786
-0.0060777155272938
-0.0067634020584569
-0.0074510154790415
-0.0081397826629166
-0.0088289507529618
-0.0095177341455222
-0.010205330097073
-0.010890935702556
-0.011573748976801
-0.01225296956904
-0.012927804770748
-0.013597474494684
-0.014261212428571
-0.014918268127237
-0.01556791228142
-0.016209445837428
-0.016842189028361
-0.017465485355305
-0.018078707856109
-0.018681263534498
-0.019272588056395
-0.019852151062895
-0.02041944451402
-0.020974005760005
-0.02151539644216
-0.022043237167061
-0.022557151093913
-0.023056842020782
-0.023541983844502
-0.024012383774803
-0.024467744048827
-0.02490800621304
-0.025332843505489
-0.025742400865016
-0.026136195401904
-0.026514719883036
-0.026877010468861
-0.027224130055096
-0.027553573487019
-0.027866586390528
-0.028154268779906
0.00048042464859986
-0.00020002812662275
-0.00089981635880438
-0.0016070064301374
-0.0023170774123323
-0.0030295598489035
-0.0037453006010803
-0.004465144960312
-0.0051891606576545
-0.005916523151792
-0.0066460721210984
-0.0073768248014545
-0.0081080190032047
-0.0088389311627435
-0.0095687870382236
-0.010296784385393
-0.011022119683083
-0.011743989243359
-0.0124615893636
-0.013174125551876
-0.013880819974425
-0.014580913158598
-0.015273666195949
-0.015958362462052
-0.016634310875437
-0.017300848531358
-0.017957342587172
-0.018603187910025
-0.019237817741354
-0.019860695767187
-0.020471327946268
-0.021069247646147
-0.021654048944138
-0.022225345536214
-0.022782822679945
-0.023326156211929
-0.023855132160647
-0.024369480616985
-0.024869114914106
-0.025353782171737
-0.025823566343639
-0.026278151740935
-0.026717893908386
-0.027142229479376
-0.02755199078296
-0.027945880299607
-0.028325497848256
-0.028687166131084
-0.029032440075403
-0.029347385665499
0.0011888360774311
0.00044931291839186
-0.00031454375022888
-0.0010848421721165
-0.001855137223222
-0.0026252383045211
-0.0033968808394131
-0.0041716763322721
-0.0049500286701724
-0.0057310356864374
-0.0065133278647731
-0.007295818711055
-0.0080777608954955
-0.0088584710842311
-0.0096371927664789
-0.010413127404699
-0.011185473845033
-0.011953430272031
-0.012716194689539
-0.013472977300157
-0.014223009459598
-0.014965544751747
-0.015699859717531
-0.016425253741451
-0.017141055864731
-0.01784663129209
-0.018541380506063
-0.019224738208361
-0.01989618653625
-0.020555234630792
-0.021201441203951
-0.021834399593815
-0.022453781616156
-0.023059271024396
-0.023650640044677
-0.024227639853143
-0.024790167235779
-0.025338033527714
-0.025871289322286
-0.026389753483615
-0.026893690341517
-0.02738282211833
-0.02785776300161
-0.028317887309957
-0.028764433451503
-0.029195759919455
-0.029614097887367
-0.030014465317179
-0.030398756775009
-0.030747184415437
0.0020097579612792
0.0012009167067292
0.00036149002799118
-0.00048308016133815
-0.0013239611469109
-0.0021613976354624
-0.0029982833778217
-0.0038371655286908
-0.0046788266740834
-0.0055222470572894
-0.0063657934656388
-0.0072082503541384
-0.0080488879052002
-0.0088870731611709
-0.0097220729417195
-0.010553093432295
-0.011379336132952
-0.012200001929273
-0.013014291708772
-0.013821422413318
-0.014620637440127
-0.015411206776084
-0.016192427487527
-0.016963623568815
-0.017724157505547
-0.01847343323789
-0.019210896266092
-0.019936029004743
-0.020648369715443
-0.021347488160187
-0.022033019764958
-0.022704636679276
-0.023362103229019
-0.024005189073385
-0.024633777850066
-0.025247723562425
-0.025847062190179
-0.026431715346856
-0.027001902912149
-0.027557552481273
-0.02809914676251
-0.028626488342836
-0.029140495344344
-0.029640526367949
-0.030128285699183
-0.030601822866427
-0.031064072728407
-0.031508695347143
-0.031937897015776
-0.032325399668445
0.0029411778530276
0.0020530600534388
0.0011266429497088
0.00019676060148776
-0.00072485167163848
-0.0016390872613217
-0.0025503251858234
-0.0034622317416755
-0.0043759972950467
-0.005290429867779
-0.006203570292063
-0.00711404599861
-0.0080211473911684
-0.0089243011393493
-0.0098228000648454
-0.01071585274754
-0.011602659423734
-0.012482419861322
-0.013354335802054
-0.014217630070088
-0.015071559366441
-0.015915413341062
-0.016748512298533
-0.017570208147653
-0.018379897829993
-0.019177022972988
-0.019961082300564
-0.020731627057654
-0.021488267926214
-0.022230637771671
-0.02295845455916
-0.02367148390434
-0.024369602113424
-0.025052686230464
-0.025720754843398
-0.026373791862946
-0.027011997943938
-0.027635441295624
-0.028244541831295
-0.028839384915291
-0.029420706352265
-0.029988452396297
-0.030543885421808
-0.031086425498526
-0.03161828836734
-0.032137302331316
-0.032647148840413
-0.033140193624357
-0.03361891341347
-0.034050281001311
0.0039833325515084
0.003006090233172
0.0019810973690635
0.00095475325349796
-5.7711827590173e-05
-0.0010581264965956
-0.0020527617929941
-0.0030466088075257
-0.0040412759614235
-0.0050353216442045
-0.0060263895069164
-0.0070129218383377
-0.0079942311592375
-0.0089698109330234
-0.0099389801114155
-0.010900943095195
-0.011854890775172
-0.012800014479867
-0.013735510520695
-0.014660602817622
-0.01557455780437
-0.016476681405328
-0.017366316347053
-0.018242843591418
-0.019105700612427
-0.019954375065046
-0.020788417820355
-0.021607431287846
-0.022411095291213
-0.023199130704931
-0.023971365107907
-0.024727668958439
-0.025468037075192
-0.026192472480204
-0.026901147665455
-0.02759420643599
-0.028272034491975
-0.028934889698969
-0.029583416668737
-0.030217920571081
-0.030839417960342
-0.031448085147808
-0.032045558932053
-0.032631438428463
-0.03320848095345
-0.033774449042432
-0.034333787035197
-0.034877772395182
-0.035409078470566
-0.035888083038505
0.0051382596088371
0.0040620759501173
0.0029266287454723
0.0017924114486142
0.00067883338645889
-0.00041721493272179
-0.0015043782571061
-0.0025892018824427
-0.0036737045107141
-0.004756095770962
-0.0058335424732005
-0.0069042741665385
-0.0079676298158231
-0.0090231754754698
-0.01007025158761
-0.011108047282802
-0.01213573086585
-0.013152473281095
-0.014157455656731
-0.015149894446797
-0.016129060159403
-0.017094267318802
-0.018044874858596
-0.018980286595735
-0.019899965162346
-0.020803442125132
-0.021690335129348
-0.022560308349348
-0.023413104189641
-0.024248525400023
-0.025066511813314
-0.025867052586638
-0.026650268706812
-0.027416310027436
-0.02816551219526
-0.028898212007509
-0.029614990499012
-0.030316345915412
-0.031003160255809
-0.031676032558888
-0.032336274695336
-0.032984400003732
-0.033622434486355
-0.034250308258685
-0.034871327341004
-0.035483416988861
-0.036091761696717
-0.036686920953862
-0.037271667278406
-0.037800492214263
0.0064095168253411
0.0052243484257218
0.0039661196464872
0.0027123837457295
0.0014873625219637
0.00028612260570453
-0.00090291063957173
-0.002088017256428
-0.0032715576857182
-0.0044512733349992
-0.0056237799690582
-0.0067870729106792
-0.0079405201974829
-0.0090837628031642
-0.010216155212379
-0.011336855050593
-0.012444990202243
-0.013539694680705
-0.014620120033733
-0.015685462569932
-0.016734982684481
-0.017767991577383
-0.018783852172513
-0.019781979860634
-0.020761866312947
-0.021723076013802
-0.022665266459627
-0.023588153954329
-0.024491556519112
-0.025375370660634
-0.026239634215213
-0.027084457223821
-0.027910084294579
-0.028716838053085
-0.029505208656331
-0.030275761875197
-0.031029266748386
-0.031766520150553
-0.032488637150783
-0.033196593677909
-0.033891996996887
-0.034575816730415
-0.035250464775746
-0.035916385209719
-0.036577409087344
-0.037231918624024
-0.037885763445983
-0.038529333638044
-0.039165382110524
-0.039743909673347
0.0078022476949694
0.0064976961668266
0.0051035002071128
0.003718051170453
0.0023711597889374
0.0010551781775433
-0.00024523485904178
-0.0015402570878725
-0.0028323884240849
-0.004118722928262
-0.0053952662759514
-0.00665977818518
-0.00791165944696
-0.009150618951876
-0.010376008248696
-0.011586931109022
-0.01278245096595
-0.013961642880955
-0.015123610074388
-0.016267511366303
-0.017392580759703
-0.018498108252151
-0.019583443356736
-0.020647994596003
-0.021691253271079
-0.022712801568555
-0.023712341763596
-0.024689649326477
-0.02564459114552
-0.026577137503343
-0.027487402587558
-0.02837563369587
-0.029242180510141
-0.030087563037055
-0.030912395284253
-0.031717517358569
-0.032503852670753
-0.03327256169148
-0.034024963566331
-0.034762495335947
-0.035487044697277
-0.036200151603838
-0.036904604509778
-0.037601551167187
-0.038295302567401
-0.038985062185803
-0.039677199010085
-0.040362701171026
-0.041044129893227
-0.041669217624297
0.0093221804414295
0.0078876642992204
0.0063439250677006
0.0048141557148638
0.0033346187366595
0.0018940925867168
0.0004725339021778
-0.00094238360995872
-0.0023530655682624
-0.0037557077424998
-0.0051456280129224
-0.0065203712297273
-0.00787938716153
-0.0092224400275034
-0.010548851268693
-0.011857639223413
-0.013147772727266
-0.014418241006549
-0.015668074928513
-0.016896371833266
-0.018102314650931
-0.019285147549779
-0.020444180672112
-0.02157879627638
-0.022688469541244
-0.023772777057925
-0.024831428805846
-0.025864237959534
-0.026871097671716
-0.027852055811211
-0.02880727337377
-0.02973713833566
-0.030642061491508
-0.031522783804494
-0.032379991118771
-0.03321484405696
-0.034028357010673
-0.034822123547816
-0.035597606526227
-0.036356783400624
-0.037101791047431
-0.037834827782974
-0.03855905355195
-0.039276474386821
-0.039991824783259
-0.040705505816146
-0.041424175423132
-0.042140442083594
-0.042856436982021
-0.043520915805281
0.010975774653064
0.0093998939228797
0.0076925128558218
0.0060058500377606
0.0043828970951474
0.0028077732251056
0.0012549500968026
-0.00029019866927593
-0.0018297669082201
-0.0033588081940251
-0.0048718558049322
-0.0063662533062307
-0.0078415219384567
-0.0092974666093917
-0.010733338631172
-0.012148028145142
-0.013540371949895
-0.014909241924539
-0.016253567636087
-0.017572356260472
-0.018864707972121
-0.020129788179892
-0.021366838301647
-0.022575181304413
-0.02375423800848
-0.024903568485322
-0.026022853312714
-0.027111905099697
-0.028170600049015
-0.029199061953515
-0.030197458950285
-0.031166311397828
-0.032106040336254
-0.033017613652915
-0.033901728811672
-0.034759891902689
-0.03559312863042
-0.036403517726275
-0.037192574164922
-0.037962884400381
-0.038716772286168
-0.039457150073212
-0.040187544754024
-0.040910942747308
-0.041632457069282
-0.042354020034179
-0.043082228435917
-0.043812504637559
-0.044546089526597
-0.045237409179037
0.012768369144014
0.011040560629567
0.0091553038122718
0.0072989396797179
0.005521697112393
0.0038017607852927
0.0021072270549148
0.00042109608363983
-0.0012581075373316
-0.0029240409451457
-0.004570378569739
-0.0061942873398673
-0.0077953783467257
-0.0093734730301534
-0.010927701757722
-0.012456771936701
-0.013959343504824
-0.015434135357019
-0.016879941564607
-0.018295643497959
-0.019680218950062
-0.021032715330646
-0.022352262438879
-0.023638087180407
-0.024889518221936
-0.026106061256755
-0.027287317261257
-0.028433069633782
-0.029543132179601
-0.030617674110591
-0.031656819580153
-0.032661191235521
-0.03363117754362
-0.034567939490942
-0.035472153212774
-0.036345633235162
-0.037189361733734
-0.038005891969249
-0.038796681633848
-0.039564963446471
-0.040313125564985
-0.041044816686235
-0.041763853188825
-0.042474358622321
-0.043181693617586
-0.043889705698657
-0.04460454554002
-0.045325902975467
-0.046053493752581
-0.046753262833405
0.014705170155046
0.012815270685268
0.010737862928354
0.0086990611495437
0.0067568042050904
0.0048818197739292
0.0030348733247746
0.0011966492348389
-0.00063329338755657
-0.0024469627766011
-0.0042371369274638
-0.006000841197343
-0.0077377860730137
-0.0094477695443712
-0.01112973191841
-0.012782132611945
-0.014403405036428
-0.015992074887903
-0.017546761338371
-0.019066175896169
-0.020549126370817
-0.021994495800077
-0.023401251902902
-0.024768479988536
-0.026095361427696
-0.02738129235
-0.028625755972437
-0.029828471381415
-0.030989133598429
-0.032107892831095
-0.033184782657855
-0.034220461939073
-0.035215261548421
-0.036170435688601
-0.037086645658005
-0.037965894969049
-0.038809148972881
-0.039619340348771
-0.040397771938904
-0.041148312891149
-0.04187317988354
-0.042576693872153
-0.043262857491201
-0.043937331625633
-0.044605021892538
-0.045272233413948
-0.045943930680512
-0.046626134689336
-0.047315990848921
-0.047998493348234
0.016790413250089
0.014728544264529
0.012444856410795
0.010211381125759
0.0080939088104028
0.0060537881473654
0.0040435086599001
0.002041759028394
4.9698714438984e-05
-0.0019228131600731