/*--------------------------------*- C++ -*----------------------------------*\
| =========                 |                                                 |
| \\      /  F ield         | OpenFOAM: The Open Source CFD Toolbox           |
|  \\    /   O peration     | Version:  2112                                  |
|   \\  /    A nd           | Website:  www.openfoam.com                      |
|    \\/     M anipulation  |                                                 |
\*---------------------------------------------------------------------------*/
FoamFile
{
    version     2.0;
    format      ascii;
    arch        "LSB;label=32;scalar=64";
    class       surfaceScalarField;
    location    "9";
    object      phi;
}
// * * * * * * * * * * * * * * * * * * * * * * * * * * * * * * * * * * * * * //

dimensions      [0 3 -1 0 0 0 0];

oriented        oriented;

internalField   nonuniform List<scalar> 
43645
(
0.39512387893623
-5.0059277775218e-06
0.39513882245925
-1.4943589385565e-05
0.39516373567056
-2.4913283078475e-05
0.39519860448687
-3.4868890462102e-05
0.39524339914439
-4.4794731995366e-05
0.39529808149932
-5.4682428683357e-05
0.39536258999405
-6.4508567097464e-05
0.39543682012015
-7.4230196908817e-05
0.39552061170483
-8.3791653700882e-05
0.3956137605611
-9.3148923571355e-05
0.39571603283645
-0.00010227234077396
0.39582719395477
-0.00011116118203133
0.39594700919291
-0.00011981529998159
0.39607526492686
-0.00012825579415996
0.39621173754433
-0.00013647267587364
0.39635622610745
-0.00014448862002981
0.39650848732575
-0.0001522612735477
0.39666831912883
-0.00015983185702508
0.39683543307867
-0.0001671140023358
0.39700964725291
-0.00017421422567115
0.39719060718472
-0.00018095998202345
0.39737820288208
-0.00018759574676079
0.39757193911899
-0.00019373628534105
0.39777185687191
-0.00019991780078938
0.39797713199016
-0.00020527516537798
0.39818816685054
-0.00021103490717394
0.3984034553627
-0.00021528855839378
0.39862433964864
-0.00022088433142932
0.39884789410403
-0.00022355449957614
-0.00022979412389374
0.39907768818319
0.37294725154475
-9.7028298406896e-06
0.37296139719293
-2.9089343754745e-05
0.37298514660125
-4.8662799486844e-05
0.37301849925391
-6.8221651101975e-05
0.37306142473097
-8.7720315615213e-05
0.37311388202507
-0.00010713982748589
0.37317580995061
-0.00012643659506047
0.37324711031662
-0.0001455306631234
0.37332763619928
-0.00016431763410051
0.37341720201711
-0.00018271483685191
0.37351559497184
-0.00020066538842186
0.37362260030638
-0.00021816660720805
0.37373800026456
-0.00023521534629226
0.37386159411613
-0.00025184973169587
0.37399316898721
-0.00026804763053346
0.37413253224786
-0.0002838519622977
0.37427944989993
-0.00029917900509081
0.37443372758267
-0.00031410961756189
0.37459508772518
-0.00032847422079247
0.37476335580387
-0.00034248237898612
0.37493819000304
-0.00035579425426892
0.37511948488786
-0.00036889070368554
0.37530675926777
-0.00038101073611918
0.37550005148522
-0.00039321008845445
0.37569855397415
-0.00040377772356685
0.37590265437878
-0.00041513538067484
0.37611087359485
-0.00042350784260694
0.37632452314433
-0.00043453394797065
0.37654073827984
-0.00043976969938558
-0.00045210278116133
0.37676304687128
0.35201555383192
-1.4359242356502e-05
0.35202953528195
-4.3070905529203e-05
0.35205293556929
-7.2063198810228e-05
0.35208576399714
-0.00010105018969219
0.35212798861732
-0.00012994504427849
0.35217955678512
-0.00015870810135194
0.35224039623952
-0.00018727615273424
0.35231040754643
-0.00021554207072108
0.35238945590008
-0.00024336608552738
0.35247737881105
-0.00027063784297923
0.35257399119483
-0.00029727786441282
0.35267910435973
-0.00032327986175145
0.35279252066099
-0.00034863173430478
0.35291405322001
-0.00037338237506144
0.3530434975921
-0.00039749208427458
0.35318066784531
-0.00042102229506101
0.35332533507213
-0.00044384630907429
0.35347731281691
-0.00046608743779682
0.35363632906084
-0.00048749053817036
0.35380222072922
-0.0005083741195647
0.35397464828706
-0.00052822188271288
0.35415352163373
-0.00054776412013791
0.3543383497697
-0.00056583894068012
0.35452919511714
-0.00058405550408105
0.354725211264
-0.00059979393776858
0.35492683478882
-0.00061675897277989
0.35513248095232
-0.00062915407286114
0.35534357637814
-0.00064562943985304
0.35555699844154
-0.00065319182617746
-0.00067165211031867
0.35577654770507
0.33225865850606
-1.8973880980598e-05
0.33227255091624
-5.6963414057272e-05
0.33229582031424
-9.5332695593439e-05
0.33232847780296
-0.00013370777625523
0.33237048051702
-0.00017194785426589
0.33242175774209
-0.00020998542031429
0.33248222174135
-0.00024774024342237
0.33255176941494
-0.00028508983348806
0.33263027832462
-0.00032187508175662
0.33271761206356
-0.00035797166615248
0.33281361772046
-0.00039328360285908
0.33291813713074
-0.00042779935127979
0.3330309958116
-0.0004614904917681
0.33315202237346
-0.00049440901140241
0.33328102079947
-0.00052649058228307
0.33341781170271
-0.0005578132684743
0.33356217018087
-0.00058820485521905
0.33371391810499
-0.00061783542844884
0.3338727876066
-0.00064636010448494
0.3340386288652
-0.00067421544181273
0.33421110096332
-0.00070069404303233
0.33439013271401
-0.00072679593237727
0.33457521336173
-0.00075091964886094
0.3347664379832
-0.00077528018572959
0.33496289856884
-0.00079625458279813
0.33516510567235
-0.00081896613570487
0.33537132281911
-0.00083537127850734
0.33558316468229
-0.00085747136130089
0.33579716142403
-0.00086718862376105
-0.00089207673253781
0.33601758598817
0.31361065298338
-2.3569567646154e-05
0.3136245325903
-7.0843109232982e-05
0.31364780828071
-0.00011860847434622
0.31368049870192
-0.00016639828472317
0.31372254961342
-0.00021399885102709
0.31377386915675
-0.00026130504684234
0.3138343517495
-0.00030822291689443
0.31390389048326
-0.00035462864572134
0.31398237754816
-0.00040036222247607
0.31406970669257
-0.00044530088407472
0.31416576202891
-0.00048933901001709
0.31427042059749
-0.00053245798844326
0.31438353488107
-0.00057460484131682
0.31450495193853
-0.00061582613279765
0.31463448631571
-0.00065602502101328
0.31477196735236
-0.00069529436498025
0.31491717597933
-0.00073341354000063
0.31506994539505
-0.00077060490069903
0.31523001392697
-0.00080642869128663
0.3153972497154
-0.00084145128429705
0.31557131171874
-0.00087475609919541
0.31575215490947
-0.00090763917556208
0.31593924599858
-0.00093801078958878
0.31613272443429
-0.00096875867309742
0.31633160695428
-0.00099513715396916
0.31653650036469
-0.0010238595976825
0.31674547787241
-0.0010443488376026
0.31696039047614
-0.0010723840162597
0.317177325636
-0.001084123832984
-0.0011158945608782
0.31740114341231
0.2960092860062
-2.8153790911442e-05
0.29602317962367
-8.4736808214932e-05
0.29604650879423
-0.0001419377263817
0.29607930238519
-0.00019919195613316
0.2961214955535
-0.00025619209794633
0.29617297459207
-0.00031278416220362
0.29623361539432
-0.00036886379366526
0.29630330794218
-0.00042432126609456
0.2963819617412
-0.00047901609158844
0.29646950506852
-0.00053284427940846
0.2965658643242
-0.00058569833121763
0.29667095702359
-0.00063755075131949
0.29678466738455
-0.00068831526331621
0.29690686510118
-0.00073802390862072
0.29703737905138
-0.00078653902813907
0.29717605116987
-0.00083396653883586
0.29732267208009
-0.00088003450362512
0.29747709108505
-0.00092502395787327
0.29763905696034
-0.00096839461718361
0.29780846199812
-0.0010108563719053
0.29798496853319
-0.0010512626828533
0.29816856570402
-0.0010912363946157
0.29835869769549
-0.0011281428283935
0.29855555960444
-0.0011656206293889
0.29875808365888
-0.0011976612551759
0.29896699233334
-0.0012327683192307
0.29918013914605
-0.0012574956970938
0.29939965229075
-0.001291897207525
0.29962110558974
-0.0013055771767365
-0.0013448228099304
0.29985003379135
0.27939579929925
-3.2718639153157e-05
0.27940968690921
-9.8624490998252e-05
0.27943303850905
-0.00016528939883872
0.2794658948823
-0.00023204840097408
0.27950818144765
-0.00029847873311896
0.27955976297998
-0.00036436576265192
0.27962049740524
-0.00042959828488643
0.2796902731233
-0.0004940970482672
0.27976901989426
-0.00055776292434619
0.27985670469526
-0.00062052914029977
0.27995330117497
-0.00068229486844146
0.28005877245037
-0.00074302208237816
0.28017303952216
-0.00080258238845861
0.28029599955603
-0.00086098399415697
0.28042750062583
-0.00091804014748149
0.28056740238426
-0.00097386834542406
0.280715510602
-0.0010281427676893
0.28087169696703
-0.0010812103682202
0.2810357269094
-0.0011324246033813
0.28120752464033
-0.0011826541460624
0.28138676186981
-0.0012304999544543
0.28157347139799
-0.0012779459647245
0.28176707835771
-0.0013217498292876
0.28196784599529
-0.0013663883083362
0.28217461887643
-0.0014044341772491
0.28238825459156
-0.0014464040757949
0.28260636889722
-0.001475610044004
0.28283140384609
-0.0015169321976563
0.28305837056722
-0.0015325439376576
-0.0015800093833374
0.28329355709799
0.26371473520526
-3.7244457344295e-05
0.26372855993381
-0.00011244928594256
0.26375184068202
-0.00018857021321963
0.2637846315947
-0.00026483937895029
0.26382684954022
-0.00034069674239569
0.26387833885978
-0.00041585514455498
0.26393894088728
-0.00049020037285241
0.264008544463
-0.00056370068290862
0.26408710254868
-0.00063632106690711
0.26417462459238
-0.00070805123926232
0.26427113595652
-0.00077880628572253
0.26437665015806
-0.0008485363354493
0.26449113010901
-0.00091706238883375
0.26461450574096
-0.0009843596740717
0.26474665005726
-0.0010501845097666
0.26488744657753
-0.0011146649104403
0.26503672297593
-0.0011774192090999
0.26519438081226
-0.0012388682466273
0.2653602099636
-0.0012982537953477
0.26553417556826
-0.0013566197907512
0.2657159667804
-0.0014122912054711
0.26590567076632
-0.0014676499892765
0.26610270030687
-0.0015187794076112
0.26630740011439
-0.0015710881536885
0.26651852905419
-0.0016155631542856
0.26673709911933
-0.0016649741784829
0.2669604798791
-0.0016989908409065
0.26719145940541
-0.0017479117609394
0.26742445503422
-0.0017655396019253
-0.0018221210593284
0.26766656667213
0.24891375113949
-4.1702962696077e-05
0.24892742832687
-0.00012612653225201
0.24895049787458
-0.00021163981960559
0.24898302849213
-0.00029737005444085
0.24902493001868
-0.00038259832550576
0.24907602812226
-0.0004669533034921
0.24913614955802
-0.00055032186231878
0.24920518591034
-0.00063273708763333
0.24928311608981
-0.00071425129696607
0.24936999517408
-0.00079493037274125
0.2494659039503
-0.00087471510925559
0.2495709104844
-0.0009535429155094
0.24968502441049
-0.0010311763589953
0.24980821372062
-0.001107549027019
0.24994038244044
-0.0011823532706291
0.25008144457884
-0.0012557270888356
0.2502312572291
-0.0013272318977622
0.25038975990756
-0.0013973709627254
0.25055677589031
-0.0014652698143848
0.250732320819
-0.0015321647552611
0.25091611144625
-0.0015960818674778
0.25110830033418
-0.0016598389118007
0.25130829835344
-0.0017187774606542
0.25151654464672
-0.001779334480855
0.25173172051182
-0.0018307390526852
0.25195500913232
-0.0018882628325975
0.2521835334557
-0.0019275151974633
0.25242045382325
-0.0019848321615204
0.25265958060786
-0.0020046664181761
-0.0020714097844152
0.25290886929875
0.23494344469546
-4.6060148609926e-05
0.23495687056034
-0.00013955245038967
0.23497955613896
-0.0002343254512867
0.23501158552405
-0.00032939949202977
0.23505286326911
-0.00042387612191002
0.23510319866157
-0.00051728874638077
0.23516240633898
-0.00060952958877647
0.23523038298013
-0.00070071377681132
0.23530713571525
-0.00079100407858369
0.23539276749367
-0.00088056219657987
0.2354874171463
-0.00096936480565656
0.23559121042423
-0.0010573362361124
0.23570420778009
-0.0011441737558715
0.23582642013546
-0.0012297614223847
0.23595778855723
-0.0013137217307859
0.2360982641432
-0.0013962027123088
0.23624774127689
-0.001476709067497
0.23640620542427
-0.0015558351454614
0.23657352316449
-0.0016325875886786
0.23674976940606
-0.001708411030459
0.23693470131935
-0.0017810138133111
0.23712854502904
-0.0018536826538177
0.23733072710382
-0.0019209595668709
0.23754178796203
-0.0019903953704979
0.23776035278482
-0.0020493039061712
0.23798778737227
-0.0021156974508715
0.23822098037155
-0.0021607082269191
0.23846348360486
-0.0022273354246903
0.23870849650275
-0.0022496793444668
-0.0023277523350803
0.23896483902272
0.2217571885722
-5.0278975817744e-05
0.2217702483261
-0.00015261225188085
0.221792358639
-0.00025643581162654
0.2218236192954
-0.0003606601954486
0.22186393128347
-0.00046418815605432
0.22191309007494
-0.0005664475832129
0.2219709008544
-0.00066734041245998
0.22203726756169
-0.00076708052754027
0.22211222710976
-0.00086596366880421
0.22219593140755
-0.00096426653568785
0.22228857859759
-0.0010620120356189
0.22239035394566
-0.0011591116232611
0.22250137176923
-0.0012551916170797
0.22262168996102
-0.0013500796509959
0.22275129217304
-0.0014433239782339
0.22289017262797
-0.0015350832019626
0.2230382709068
-0.0016248073797281
0.22319562548299
-0.0017131897545116
0.22336215737352
-0.0017991195108913
0.2235380066941
-0.0018842603823489
0.22372298901099
-0.0019659961604876
0.2239174027461
-0.0020480964190279
0.22412072333097
-0.0021242801809697
0.22433357321751
-0.0022032452862467
0.22455458032141
-0.0022703110385128
0.22478525486496
-0.0023463720229347
0.2250223337916
-0.0023977871813493
0.22526973494732
-0.002474736607805
0.2255201156437
-0.0025000600668152
-0.0025907462459655
0.22578310952646
0.20931097482486
-5.4321891423166e-05
0.20932355027598
-0.0001651877461746
0.20934488838448
-0.00027777396323863
0.20937510425
-0.00039087610382361
0.20941409684387
-0.0005031807920167
0.20946165046344
-0.00061400124438637
0.20951756349427
-0.00072325348396537
0.20958174891051
-0.00083126598391144
0.20965427406825
-0.0009384888656256
0.20973533959317
-0.0010453320990815
0.20982520266843
-0.0011518751481935
0.20992410836702
-0.0012580173585303
0.21003222656601
-0.0013633098515269
0.21014966496594
-0.0014675180857689
0.21027645441604
-0.001570113461945
0.21041263726415
-0.0016712660831158
0.21055820559949
-0.0017703757469401
0.21071325666478
-0.0018682408512004
0.21087777733488
-0.0019636402112873
0.21105197596987
-0.0020584590472799
0.2112357500059
-0.0021497702254645
0.21142945490856
-0.0022418013504098
0.21163268252924
-0.0023275078294615
0.21184604716828
-0.0024166099529851
0.21206837517196
-0.0024926390690561
0.21230104576875
-0.0025790426465252
0.21254104965857
-0.0026377910971248
0.21279217146663
-0.0027258584413092
0.21304719336554
-0.0027550819896984
-0.0028597326178082
0.21331617971144
0.19756326773661
-5.8153135009233e-05
0.19757524401162
-0.00017716406050282
0.19759561902792
-0.00029814901888132
0.19762452167312
-0.00041977878823807
0.19766185007812
-0.00054050923562384
0.19770738000729
-0.00065953121184419
0.19776090558314
-0.00077677909735256
0.19782235005996
-0.00089271049790789
0.19789181086539
-0.0010079497073661
0.19796953565174
-0.0011230569213369
0.19805583869609
-0.0012381782274864
0.19815102346452
-0.0013532021614501
0.19825531547989
-0.0014676019003591
0.19836887361686
-0.0015810762557515
0.19849177912213
-0.0016930189991737
0.19862412622129
-0.0018036132138094
0.19876596522858
-0.00191221478471
0.19891745721853
-0.0020197328712513
0.19907866343344
-0.0021248464552761
0.19924986624613
-0.0022296618887482
0.19943105738371
-0.0023309613908464
0.19962265759413
-0.0024334015883952
0.19982438666202
-0.0025292369240244
0.2000368749467
-0.0026290982641754
0.20025914935494
-0.0027149135029346
0.20049247430372
-0.0028123676207992
0.20073422786762
-0.0028795446856298
0.20098774369535
-0.0029793742930785
0.20124666844017
-0.0030140067570837
-0.0031336671454403
0.20152060294336
0.18647486511477
-6.1740913907593e-05
0.18648613743627
-0.00018843641845832
0.18650537481903
-0.00031738643821221
0.18653271729731
-0.00044712130306199
0.18656806313211
-0.00057585510649402
0.1866111820652
-0.00070265018079996
0.18666186619263
-0.00082746326004684
0.18672004967626
-0.00095089401656239
0.18678585864946
-0.0010737587148836
0.18685958472937
-0.0011967830352763
0.18694159569491
-0.0013201892262602
0.18703225024037
-0.0014438567398479
0.18713182784917
-0.0015671795412259
0.18724053823721
-0.0016897866755531
0.18735851453703
-0.0018109953298392
0.18748590490807
-0.0019310036153831
0.18762282187601
-0.0020491317822377
0.18776949345611
-0.0021664044806209
0.18792606203794
-0.0022814150654181
0.1880928883907
-0.0023964882695032
0.188270066432
-0.0025081394591927
0.18845809881876
-0.0026214340019079
0.18865681964237
-0.0027279577734581
0.18886695255702
-0.0028392312044071
0.18908762276567
-0.0029355837362438
0.18932019774798
-0.0030449426275293
0.1895621930748
-0.0031215400359296
0.18981686997753
-0.0032340512186471
0.19007827372985
-0.003275410530809
-0.0034111981723556
0.19035580473356
0.17600876580569
-6.5057991561251e-05
0.17601924642982
-0.00019891707689453
0.17603719589536
-0.00033533593824806
0.17606276360646
-0.0004726890486968
0.17609584877005
-0.00060894030421891
0.17613621734808
-0.00074301879281491
0.17618366131703
-0.00087490726244215
0.17623812583595
-0.0010053585687388
0.17629976337659
-0.0011353962881404
0.17636890512151
-0.0012659248125971
0.17644596720728
-0.001397251343745
0.17653135876181
-0.0015292483258719
0.17662540983596
-0.0016612306461502
0.1767283789014
-0.0017927557715497
0.17684045061628
-0.0019230670745203
0.17696182717594
-0.0020523802045937
0.17709268519109
-0.0021799898261158
0.17723332072815
-0.0023070400461253
0.17738396109475
-0.0024320554595664
0.17754504912612
-0.0025575763280794
0.17771678396346
-0.0026798743227937
0.17789976417381
-0.0028044142381537
0.17809393437674
-0.0029221280013261
0.17830013905468
-0.0030454359069258
0.17851760055151
-0.003153045256698
0.17874782570336
-0.0032751678026635
0.17898841978455
-0.0033621341394417
0.17924277651269
-0.0034884079684421
0.17950501850247
-0.0035376525408721
-0.0036909817515107
0.17978480205954
0.16613004709666
-6.8083138711418e-05
0.16613966717684
-0.00020853718993734
0.16615620768446
-0.00035187647895246
0.16617982564083
-0.00049630703817714
0.16621042202381
-0.00063953671989813
0.16624776107202
-0.00078035787352499
0.16629163605604
-0.00091878227838959
0.16634200246685
-0.0010557250112059
0.16639903589093
-0.0011924297432184
0.166463101678
-0.0013299906304111
0.16653465783977
-0.0014688075355979
0.16661415760566
-0.0016087481216544
0.16670197658458
-0.0017490496543143
0.16679841822105
-0.0018891974371104
0.16690371649667
-0.0020283653785872
0.16701812578985
-0.0021667895260321
0.16714188613942
-0.0023037502032154
0.16727536102915
-0.0024405149631231
0.16741886240727
-0.0025755568640944
0.16757291822743
-0.0027116321742666
0.16773783107393
-0.0028447871943426
0.1679143065127
-0.0029808897014973
0.16810239759859
-0.0031102191107486
0.16830308456852
-0.0032461228998938
0.16851569806916
-0.0033656587793463
0.1687418941386
-0.003501363893625
0.16897940766887
-0.0035996476902655
0.16923176057206
-0.0037407608914935
0.16949321640723
-0.0037991083947038
-0.0039713537349142
0.16977358837018
0.15680574727669
-7.0801754960955e-05
0.15681445739253
-0.00021724733775295
0.15682949979559
-0.00036691891413018
0.15685103711046
-0.00051784438503466
0.15687897260716
-0.00066747224801165
0.15691307057179
-0.00081445586915329
0.15695312663903
-0.00095883837584421
0.15699910549323
-0.001101703895116
0.15705120179839
-0.0012445260772469
0.15710980858998
-0.0013885974504413
0.15717541826375
-0.001534417237059
0.15724852078729
-0.0016818506726094
0.15732953099589
-0.0018300598897172
0.15741879191082
-0.0019784583786973
0.15751658290649
-0.0021261564003508
0.15762320670076
-0.0022734133462601
0.15773896365657
-0.0024195071843309
0.15786428197984
-0.0025658333114293
0.15799955422081
-0.0027108291292862
0.15814539490131
-0.0028574728785261
0.15830220364315
-0.0030015959589203
0.1584708036443
-0.0031494897247634
0.15865134739013
-0.0032907628775512
0.15884497497804
-0.0034397505080723
0.15905111021088
-0.0035717940313211
0.15927159420737
-0.0037218479085904
0.15950429145094
-0.0038323449513264
0.15975286393008
-0.0039893333874427
0.16001181716875
-0.0040580616492464
-0.0042505178654428
0.16029098128158
0.1480047550604
-7.3205914637546e-05
0.14801252578502
-0.00022501809422876
0.14802601383491
-0.00038040699582325
0.14804538527965
-0.00053721586104337
0.14807054612205
-0.00069263312068541
0.1481012622374
-0.0008451720138847
0.14813733234651
-0.00099490851310225
0.14817872873361
-0.0011431003093914
0.14822566054653
-0.001291457916118
0.14827854143452
-0.0014414783635943
0.14833788982581
-0.0015937656525449
0.14840422403719
-0.0017481849077185
0.14847799102037
-0.001903826895967
0.14855956687274
-0.0020600342539434
0.14864927108445
-0.0022158606344264
0.14874744897228
-0.0023715912563258
0.14885445606808
-0.0025265143017909
0.14897078025366
-0.0026821575183865
0.14909688739285
-0.0028369362890594
0.14923347742924
-0.0029940629349436
0.14938103604867
-0.0031491545972802
0.14954051130429
-0.0033089649985005
0.14971214392446
-0.0034623955145323
0.14989725456532
-0.0036248611647876
0.15009535065774
-0.0037698901382884
0.15030849437223
-0.0039349916367483
0.15053465029795
-0.0040585008896692
0.15077765510545
-0.0042323382069433
0.15103225247165
-0.0043126590268895
-0.0045265735050242
0.15130830809794
0.13969770514464
-7.5293829620293e-05
0.13970452620851
-0.00023183919166708
0.13971643601103
-0.00039231683166069
0.13973360167585
-0.00055438155799367
0.13975593181853
-0.0007149632937107
0.13978319517803
-0.00087243540199163
0.13981519432264
-0.0010269076843223
0.13985190747561
-0.0011798134872648
0.13989355337807
-0.0013331038416459
0.13994055867416
-0.0014884836814361
0.13999345908823
-0.0016466660870432
0.14005279234257
-0.0018075181817558
0.14011902971699
-0.0019700642892891
0.14019257279433
-0.0021335773498982
0.14027377529983
-0.0022970631580407
0.14036301744299
-0.0024608334174552
0.14046070390609
-0.0026242007823383
0.1405673737399
-0.0027888273693221
0.14068355884082
-0.0029531214062919
0.14081003687996
-0.0031205409897219
0.14094737154082
-0.0032864892725599
0.14109662693972
-0.0034582204107605
0.14125813210767
-0.0036239006943139
0.14143337516244
-0.0038001042300874
0.14162196971978
-0.0039584847045896
0.14182622730534
-0.0041392492300855
0.14204418953156
-0.0042764631224799
0.14228001288886
-0.0044681615702706
0.14252833085037
-0.0045609769943441
-0.004797409504117
0.1427991668416
0.13185687968091
-7.7068815131891e-05
0.13186275752025
-0.00023771707072205
0.13187309462161
-0.00040265397272323
0.13188805672394
-0.00056934369805543
0.13190755464358
-0.00073446124821068
0.13193136086116
-0.00089624165151322
0.13195928232055
-0.0010548291725787
0.1319913012413
-0.001211832434192
0.13202764089613
-0.0013694435200662
0.13206873305034
-0.0015295758572892
0.13211512224336
-0.0016930552999501
0.13216735652839
-0.0018597524855906
0.13222592426432
-0.0020286320430767
0.13229124399709
-0.0021988971000942
0.13236369780036
-0.0023695169781972
0.13244369026988
-0.0025408259036568
0.13253167034076
-0.002712180869347
0.13262821263991
-0.0028853696841947
0.13273391361547
-0.0030588223966641
0.13284960614555
-0.0032362335337259
0.13297593910723
-0.0034128222467262
0.13311406073532
-0.0035963420499125
0.13326440613379
-0.0037742461019737
0.13342858485142
-0.0039642829551348
0.13360633433661
-0.0041362341952203
0.13380020675588
-0.004333121653132
0.13400836128348
-0.004484617652396
0.13423547897613
-0.0046952792646166
0.13447585410555
-0.0048013521257843
-0.0050612046975326
0.13473964929485
0.1244561159979
-7.8538518286285e-05
0.12446107102344
-0.00024267215059729
0.12446986625218
-0.0004114492570779
0.12448266256986
-0.00058214006903565
0.1244993732154
-0.00075117194311299
0.12451977686027
-0.00091664534154048
0.12454368600407
-0.0010787383572967
0.12457108382493
-0.0012392302922564
0.12460219161994
-0.001400551348932
0.12463743739565
-0.0015648216642656
0.12467736621408
-0.001732984147502
0.12472252766023
-0.0019049139594415
0.12477342155586
-0.002079525965253
0.12483047469406
-0.0022559502642018
0.12489409360683
-0.002433135916222
0.1249646934401
-0.002611425761783
0.12504276669169
-0.002790254145095
0.12512889779491
-0.0029715008109055
0.12522375808991
-0.0031536827139927
0.12532818767147
-0.0033406631362926
0.12544295476015
-0.0035275893545588
0.12556921893978
-0.0037226062466674
0.12570758465444
-0.0039126118313022
0.12585969989448
-0.0041163982073899
0.12602546746939
-0.0043020017796818
0.12620756817914
-0.0045152223700725
0.12640424602055
-0.0046812954989623
0.1266208714721
-0.0049119047203634
0.12685183697135
-0.0050323176295895
-0.0053170360691595
0.12710766833576
0.11747072167838
-7.9716482543244e-05
0.11747478927522
-0.00024673982843405
0.1174820986655
-0.00041875873139442
0.11749279834381
-0.00059283982917868
0.11750680525948
-0.00076517893602785
0.11752390874313
-0.0009337488972715
0.11754393021299
-0.001098759894115
0.1175668517689
-0.0012621519106149
0.11759288524998
-0.0014265848885765
0.11762244500377
-0.001594381473594
0.11765606738014
-0.001766606576984
0.11769429518707
-0.0019431418177528
0.11773763510486
-0.002122865933088
0.11778651399576
-0.0023048292041972
0.11784136018212
-0.0024879821508048
0.11790258399596
-0.0026726496230618
0.1179707239675
-0.0028583941630737
0.11804634199984
-0.0030471188884786
0.11813020746197
-0.0032375482197123
0.11822309556262
-0.0034335512784417
0.11832596513165
-0.0036304589624877
0.11843984160437
-0.0038364827552306
0.11856565455644
-0.0040384248158758
0.11870488597669
-0.0042556296565986
0.11885784595567
-0.0044549617840985
0.11902716989816
-0.0046845463345013
0.11921089893246
-0.0048650245522606
0.11941518403874
-0.0051161898437673
0.11963319391795
-0.0052503275257876
-0.0055674637125457
0.11988362154043
0.11087740055596
-8.0632235834492e-05
0.11088063894275
-0.00024997833272888
0.11088654559342
-0.00042466550398934
0.11089524728655
-0.00060154164205453
0.11090667376733
-0.00077660553153186
0.11092062964331
-0.00094770488229719
0.11093694443789
-0.0011150747921803
0.11095559408016
-0.0012808016516221
0.11097677317656
-0.0014477640796532
0.11100087380795
-0.0016184821965887
0.11102841770987
-0.0017941505679735
0.11105993913382
-0.0019746633289682
0.11109595004025
-0.0021588769251932
0.11113687309808
-0.0023457523465323
0.1111831530505
-0.0025342621864177
0.11123518174197
-0.0027246783965635
0.11129353925727
-0.0029167517587386
0.11135873475638
-0.0031123144661717
0.11143165411501
-0.003310467654285
0.11151292904048
-0.0035148262768164
0.11160380951848
-0.003721339509337
0.11170496145939
-0.0039376347606728
0.11181795186466
-0.0041514152807231
0.11194354057548
-0.0043812184222784
0.11208323015541
-0.004594651413882
0.11223879443918
-0.0048401106633687
0.11240939461477
-0.0050356247683914
0.11260086971175
-0.0053076649781714
0.11280167680102
-0.0054511346511132
-0.0058134400511401
0.11304765309782
0.10465416806107
-8.133446081274e-05
0.10465667945733
-0.00025248988506223
0.10466128047678
-0.0004292666824005
0.104668091868
-0.0006083531894415
0.10467707220684
-0.00078558602143231
0.1046880610963
-0.00095869391717934
0.10470089826594
-0.0011279121019894
0.10471553633196
-0.0012954398533321
0.10473213258929
-0.0014643604690862
0.10475104292281
-0.0016373926593757
0.10477277234621
-0.0018158801184424
0.10479785471847
-0.0019997458264297
0.10482681305586
-0.0021878353862437
0.10486007519454
-0.002379014607294
0.10489809276321
-0.0025722798756538
0.10494123594776
-0.0027678216997739
0.10499009865231
-0.0029656145798486
0.1050451294184
-0.0031673453458657
0.10510730038756
-0.0033726387334824
0.1051770703124
-0.0035845963068232
0.1052560087954
-0.0038002780919179
0.10534424606422
-0.0040258721223924
0.1054443343947
-0.0042515036975143
0.10555546568382
-0.0044923497909286
0.1056817998307
-0.0047209856339209
0.10582118884948
-0.0049794997485097
0.10597963192659
-0.005194067905803
0.10615701210505
-0.0054850452119674
0.10635228782351
-0.0056464104225971
-0.0060386500101249
0.10657749772056
0.098780186732218
-8.1803086446924e-05
0.098782087559266
-0.00025439089347755
0.098785432390752
-0.00043261169647465
0.098790483589454
-0.00061340456768546
0.098797169317324
-0.00079227192421346
0.098805414768228
-0.00096693953830944
0.098815085769819
-0.0011375832695996
0.098826123201451
-0.001306477447743
0.098838637252856
-0.0014768746807235
0.09885292244649
-0.0016516780114929
0.098869432970857
-0.0018323907997689
0.09888867764779
-0.0020189906591908
0.09891117878825
-0.0022103366811839
0.098937373071165
-0.0024052090434664
0.098967722749126
-0.0026026297051077
0.099002597674872
-0.0028026967751391
0.099042604428189
-0.0030056214799308
0.099088164581683
-0.0032129056426273
0.099140312123684
-0.003424786413519
0.099199395959392
-0.0036436802740859
0.099267229968049
-0.0038681122237156
0.099343490493497
-0.0041021327619754
0.099431650282121
-0.0043396635906744
0.099529209491155
-0.0045899090956143
0.099643577323434
-0.0048353535530109
0.099766322782437
-0.0051022452856323
0.09991400060293
-0.0053417457960915
0.10006606008896
-0.0056371047622375
0.10025827617955
-0.0058386265768964
0.10048948164971
-0.0062698555532186
0.39441069908347
0.0046669890551338
0.38990214613913
0.0045085529009783
0.38555672745244
0.0043454186439953
0.38137904483941
0.0041776825702465
0.37737357583375
0.0040054689627766
0.37354466672513
0.0038289090651336
0.36989652504883
0.0036481416324478
0.36643321274942
0.0034633122547541
0.36315864124241
0.0032745714619044
0.36007657083602
0.0030820703603721
0.35719060989123
0.0028859608982749
0.35450421128403
0.0026863985597231
0.35202066398673
0.0024835472493161
0.34974308166589
0.0022775822718531
0.34767438819715
0.002068693419261
0.34581730259123
0.001857085555408
0.34417432337505
0.0016429791651915
0.34274771527555
0.0014266080474469
0.34153949795316
0.001208217269871
0.34055143860541
0.00098805929412876
0.33978504647823
0.00076639207308509
0.33924156951409
0.00054347690886109
0.33892198456118
0.00031958489712604
0.33882692721491
9.505728923051e-05
0.33895712149851
-0.00013019434119
0.3393127809094
-0.00035565946977808
0.33989387005523
-0.00058108920527883
0.3407001691485
-0.00080629915400918
0.34173123160221
-0.0010310625149276
0.34298638428794
-0.0012551527481013
0.34446473071963
-0.0014783464943194