/*--------------------------------*- C++ -*----------------------------------*\
| =========                 |                                                 |
| \\      /  F ield         | OpenFOAM: The Open Source CFD Toolbox           |
|  \\    /   O peration     | Version:  2112                                  |
|   \\  /    A nd           | Website:  www.openfoam.com                      |
|    \\/     M anipulation  |                                                 |
\*---------------------------------------------------------------------------*/
FoamFile
{
    version     2.0;
    format      ascii;
    arch        "LSB;label=32;scalar=64";
    class       volVectorField;
    location    "9";
    object      U;
}
// * * * * * * * * * * * * * * * * * * * * * * * * * * * * * * * * * * * * * //

dimensions      [0 1 -1 0 0 0 0];

internalField   nonuniform List<vector> 
22000
(
(1.000001064679 -2.6133990897081e-05 0)
(1.0000269243566 -7.8144583297105e-05 0)
(1.0000766891467 -0.00013010670046259 0)
(1.0001515457973 -0.00018191452777767 0)
(1.000251894222 -0.00023351349909519 0)
(1.0003776750202 -0.00028488519749427 0)
(1.0005286131102 -0.00033591994528979 0)
(1.0007043415058 -0.00038639578164822 0)
(1.0009044470586 -0.00043601967928443 0)
(1.0011284672569 -0.00048455992813284 0)
(1.0013758599849 -0.00053186181507673 0)
(1.0016460471314 -0.00057792488689851 0)
(1.0019384282941 -0.00062275199728258 0)
(1.00225244797 -0.00066645834741359 0)
(1.002587537223 -0.00070899359463274 0)
(1.0029431854267 -0.0007504803052571 0)
(1.0033187968944 -0.00079069542372802 0)
(1.0037138605998 -0.00082985961871664 0)
(1.0041276795379 -0.00086751496394369 0)
(1.0045597677029 -0.0009042283827771 0)
(1.0050092827659 -0.00093908203925315 0)
(1.0054758787974 -0.00097337907504622 0)
(1.0059584441893 -0.001005071733132 0)
(1.0064569215329 -0.0010370276666825 0)
(1.006969587322 -0.0010646464202555 0)
(1.0074969573697 -0.0010944887171432 0)
(1.0080361471273 -0.0011163826367449 0)
(1.0085890229746 -0.0011455504925082 0)
(1.0091507054311 -0.0011591863536957 0)
(1.0097262164259 -0.0011922015044494 0)
(1.0000005071273 -7.6996356353944e-05 0)
(1.0000264896736 -0.00023048580767556 0)
(1.0000768615956 -0.00038406223528038 0)
(1.0001527383721 -0.00053733826261357 0)
(1.0002545524277 -0.00069007715193201 0)
(1.0003823007254 -0.00084218301539761 0)
(1.0005357362226 -0.00099332413473961 0)
(1.0007145034812 -0.0011428552799733 0)
(1.0009181868855 -0.0012899273120988 0)
(1.0011463399205 -0.0014338657928907 0)
(1.001398426333 -0.0015742155470017 0)
(1.0016739038008 -0.0017109637024415 0)
(1.0019721634986 -0.0018441063962537 0)
(1.0022926919191 -0.0019739634160876 0)
(1.0026348668366 -0.0021003801346345 0)
(1.0029982477551 -0.002223699475073 0)
(1.0033821141171 -0.0023432728521857 0)
(1.0037861147513 -0.0024597255627058 0)
(1.0042092843551 -0.002571738758679 0)
(1.004651510717 -0.0026809336807231 0)
(1.0051113600489 -0.0027846794883081 0)
(1.0055893459069 -0.0028866979240952 0)
(1.0060830296326 -0.002981115930394 0)
(1.0065942950461 -0.0030760922914427 0)
(1.0071184620187 -0.0031584440143751 0)
(1.007660341529 -0.0032468429347599 0)
(1.0082106182963 -0.0033122355006361 0)
(1.0087805160856 -0.0033980059850655 0)
(1.0093513389531 -0.0034392319071168 0)
(1.0099486793113 -0.0035352852912143 0)
(1.0000005306298 -0.00012605429582833 0)
(1.0000277115435 -0.00037778291526507 0)
(1.0000803615724 -0.00063001693264876 0)
(1.0001595891793 -0.00088198321998411 0)
(1.0002657875493 -0.001133125148647 0)
(1.0003989067609 -0.0013831897190576 0)
(1.0005586564957 -0.0016316299485284 0)
(1.0007446644955 -0.0018774533826198 0)
(1.0009565106246 -0.0021193586057452 0)
(1.0011937840448 -0.0023563133881765 0)
(1.0014559763742 -0.0025875968280184 0)
(1.0017426119911 -0.0028131666416251 0)
(1.0020530811233 -0.0030329615984559 0)
(1.0023869348777 -0.0032474509664329 0)
(1.0027434723102 -0.0034563305093959 0)
(1.0031223558929 -0.0036601444054446 0)
(1.0035226717401 -0.0038578063017752 0)
(1.0039443192798 -0.0040503621894741 0)
(1.0043859076269 -0.0042356183133494 0)
(1.0048479354948 -0.004416288285173 0)
(1.0053279952298 -0.004587966900447 0)
(1.0058280477038 -0.0047568819728609 0)
(1.0063433939103 -0.0049131550610223 0)
(1.0068792784063 -0.0050704723901215 0)
(1.0074258469551 -0.0052066036905359 0)
(1.0079955382673 -0.0053529803714636 0)
(1.0085674776791 -0.0054605194925509 0)
(1.0091699203265 -0.0056024802316392 0)
(1.0097586179495 -0.0056690212126171 0)
(1.0103976822595 -0.0058282901257058 0)
(1.0000005401324 -0.00017447872203712 0)
(1.0000291083853 -0.00052345978501749 0)
(1.00008454323 -0.00087350227435501 0)
(1.0001680484706 -0.0012233467333691 0)
(1.0002800109511 -0.0015719715045024 0)
(1.0004203111726 -0.0019188859590322 0)
(1.0005885730889 -0.0022633531959646 0)
(1.0007843789024 -0.0026041518099216 0)
(1.0010072945182 -0.0029396858437899 0)
(1.001256961257 -0.0032686984304833 0)
(1.0015329160247 -0.0035902615607369 0)
(1.0018347817715 -0.0039042872010685 0)
(1.0021619527019 -0.0042105857265036 0)
(1.0025140746219 -0.0045097016324328 0)
(1.0028903406535 -0.0048011138836656 0)
(1.0032905626912 -0.0050855494003333 0)
(1.003713559 -0.0053614619875884 0)
(1.0041595896002 -0.0056303581225492 0)
(1.0046266658466 -0.0058891338709375 0)
(1.0051161623124 -0.0061416761499742 0)
(1.0056242901992 -0.0063816764218957 0)
(1.0061550802055 -0.0066180475509437 0)
(1.00670061178 -0.0068365664695367 0)
(1.0072709346649 -0.007056912951624 0)
(1.0078488132148 -0.0072469829462095 0)
(1.008457589283 -0.0074521665207644 0)
(1.0090599139896 -0.0076013487701283 0)
(1.0097083712869 -0.0078006460354458 0)
(1.0103223345501 -0.0078905001729524 0)
(1.0110208505116 -0.0081150684843073 0)
(1.0000005496077 -0.00022254540001057 0)
(1.0000307364857 -0.00066847682730061 0)
(1.0000894400564 -0.0011162500909829 0)
(1.0001779896185 -0.0015639715159262 0)
(1.000296775995 -0.0020099695817611 0)
(1.0004456010763 -0.0024534192148969 0)
(1.000623984026 -0.0028934240006451 0)
(1.0008314506096 -0.0033286701569986 0)
(1.0010675526336 -0.0037574476257918 0)
(1.0013320030841 -0.0041784271849136 0)
(1.0016244040059 -0.0045905407333885 0)
(1.0019445112298 -0.0049936361966425 0)
(1.002291732622 -0.0053873138321115 0)
(1.0026658432696 -0.0057721090006152 0)
(1.003065910563 -0.0061472054171732 0)
(1.0034919482427 -0.0065134934202266 0)
(1.0039424421931 -0.0068689376769546 0)
(1.0044181290441 -0.0072155565380554 0)
(1.0049162634935 -0.0075492860336113 0)
(1.0054393648474 -0.0078752961738051 0)
(1.0059818774766 -0.0081852026949031 0)
(1.0065505222384 -0.0084908479722173 0)
(1.0071332393666 -0.0087732042986704 0)
(1.0077462949523 -0.0090585685263756 0)
(1.0083629609372 -0.0093038361027477 0)
(1.0090206321637 -0.0095699611164567 0)
(1.0096607901648 -0.0097611009273736 0)
(1.0103672710983 -0.010020240813062 0)
(1.0110127750721 -0.010131721766466 0)
(1.0117867183677 -0.010425416913948 0)
(1.0000005574365 -0.0002704036496476 0)
(1.0000325118445 -0.00081335043161957 0)
(1.0000948012613 -0.0013592028536319 0)
(1.0001889002603 -0.0019052638478749 0)
(1.0003152061823 -0.0024489952609704 0)
(1.0004734320633 -0.0029891218143674 0)
(1.0006629785549 -0.0035246185777086 0)
(1.0008833102445 -0.0040542320057035 0)
(1.0011339698879 -0.0045763409855305 0)
(1.0014147649669 -0.0050897152322777 0)
(1.0017253871313 -0.0055932225975013 0)
(1.0020657634268 -0.0060866272035172 0)
(1.00243533161 -0.0065692291685471 0)
(1.0028340355021 -0.0070414615905635 0)
(1.0032608052964 -0.0075021270028495 0)
(1.0037159138324 -0.0079522598146019 0)
(1.0041974606235 -0.0083893040472437 0)
(1.0047067784387 -0.008815851959107 0)
(1.0052402210273 -0.0092268217759682 0)
(1.0058017197413 -0.0096288001313012 0)
(1.0063835903838 -0.010011121895085 0)
(1.0069958460106 -0.010388858818108 0)
(1.0076214176147 -0.010737624048228 0)
(1.0082841409402 -0.011091093907291 0)
(1.0089457956098 -0.011393798215813 0)
(1.0096608117025 -0.011724207918292 0)
(1.0103450915498 -0.011958486556275 0)
(1.0111202109682 -0.012281343383354 0)
(1.0118026112717 -0.012413302516493 0)
(1.0126664371777 -0.012781628639598 0)
(1.0000005615802 -0.00031805253909247 0)
(1.0000343349049 -0.00095811242420479 0)
(1.000100338884 -0.0016024495063711 0)
(1.0002002096015 -0.0022473856287252 0)
(1.0003343525582 -0.0028892852903216 0)
(1.0005023829525 -0.0035262991382228 0)
(1.0007035721042 -0.0041573078051941 0)
(1.0009373218371 -0.0047812834360245 0)
(1.0012031747618 -0.0053969146254435 0)
(1.0015010584328 -0.0060032565152828 0)
(1.0018307821566 -0.0065991979875294 0)
(1.0021924850142 -0.0071844009494087 0)
(1.0025856559538 -0.0077577729603971 0)
(1.0030104505866 -0.0083195481435663 0)
(1.0034656582457 -0.0088680606036605 0)
(1.0039518722442 -0.0094044718380495 0)
(1.0044667630122 -0.0099256762105144 0)
(1.0050123818093 -0.010434911268913 0)
(1.0055840543828 -0.010926017444112 0)
(1.0061873887332 -0.011407149455091 0)
(1.0068122398205 -0.011865134104217 0)
(1.0074724958612 -0.012318612641981 0)
(1.0081452695058 -0.012737213641102 0)
(1.0088632488789 -0.013162857437369 0)
(1.0095748673478 -0.013526158839148 0)
(1.0103543772996 -0.013925318776187 0)
(1.0110880385002 -0.014204800390937 0)
(1.0119411499311 -0.014596525962757 0)
(1.0126651433149 -0.014748472500976 0)
(1.0136320082432 -0.01519845555515 0)
(1.0000005604061 -0.00036535416362484 0)
(1.0000361074442 -0.0011023655667741 0)
(1.0001057663251 -0.0018453453621011 0)
(1.0002113468164 -0.0025894554250927 0)
(1.0003532645832 -0.0033297279695349 0)
(1.0005310301337 -0.0040636136927937 0)
(1.0007437778721 -0.0047899369128847 0)
(1.0009908479746 -0.005508070388077 0)
(1.0012717947674 -0.0062172460345695 0)
(1.0015866932935 -0.0069170020871042 0)
(1.0019355015129 -0.0076063416394593 0)
(1.00231861352 -0.0082848088454646 0)
(1.0027355957318 -0.0089508277705823 0)
(1.0031868622289 -0.0096043366785122 0)
(1.0036710660464 -0.010243116392864 0)
(1.0041891865823 -0.010868441958782 0)
(1.0047384349022 -0.011476633745551 0)
(1.0053217053072 -0.012071654039999 0)
(1.0059331884108 -0.012646206246293 0)
(1.006580427407 -0.013210179402053 0)
(1.0072505215723 -0.013747650007438 0)
(1.0079617863763 -0.014281202142476 0)
(1.0086847860785 -0.014773800042365 0)
(1.0094622537607 -0.015276556771793 0)
(1.0102276005996 -0.015704478024718 0)
(1.011077439786 -0.016177918653807 0)
(1.0118647551402 -0.016505587745219 0)
(1.0128039307977 -0.016972613485548 0)
(1.0135736364288 -0.017144908031164 0)
(1.0146553478122 -0.017685140126058 0)
(1.0000005525913 -0.00041206567338904 0)
(1.0000377336051 -0.0012453823484117 0)
(1.0001108021721 -0.0020866808650616 0)
(1.0002217503325 -0.0029297895386821 0)
(1.0003710061225 -0.0037681768037821 0)
(1.0005579712449 -0.0045984696212141 0)
(1.0007816391297 -0.0054194777354599 0)
(1.001041292112 -0.0062311548354964 0)
(1.0013365105263 -0.0070335172274983 0)
(1.0016675454547 -0.00782679049626 0)
(1.0020345364575 -0.008610191693093 0)
(1.0024381767471 -0.0093831357035736 0)
(1.0028781404144 -0.010143477374773 0)
(1.0033551491699 -0.010890765655539 0)
(1.0038677319313 -0.011622149779166 0)
(1.0044173224818 -0.01233900988426 0)
(1.0050006551808 -0.013037075890106 0)
(1.0056215912466 -0.013721121484861 0)
(1.0062731021604 -0.014382659572675 0)
(1.0069649130163 -0.015033490604164 0)
(1.0076811181026 -0.015654694907017 0)
(1.0084449711637 -0.016273194630882 0)
(1.0092198571447 -0.016844581351583 0)
(1.0100596245277 -0.017430165090944 0)
(1.0108812155965 -0.017927556283977 0)
(1.0118058314208 -0.018481831845272 0)
(1.012650064285 -0.018861653211539 0)
(1.0136819866136 -0.019411687683751 0)
(1.0145009571849 -0.019605728884688 0)
(1.0157078225494 -0.020246348927184 0)
(1.0000005367591 -0.00045787031581746 0)
(1.0000391226006 -0.0013861992321164 0)
(1.0001151789484 -0.0023248396482526 0)
(1.0002308846137 -0.0032661233165353 0)
(1.0003866832121 -0.0042017334754984 0)
(1.0005818662955 -0.0051273550018592 0)
(1.0008152857842 -0.0060418275896704 0)
(1.0010861722917 -0.006945867391669 0)
(1.001394147957 -0.0078405182516641 0)
(1.0017396682406 -0.0087268995062069 0)
(1.0021230875823 -0.0096045469391562 0)
(1.002545441837 -0.010472739817452 0)
(1.0030065454559 -0.011328686702649 0)
(1.0035074777566 -0.012171460548983 0)
(1.0040466627284 -0.01299751096617 0)
(1.0046260574613 -0.013808320885576 0)
(1.0052419162807 -0.014599024302903 0)
(1.0058991862901 -0.015375297660676 0)
(1.0065895639206 -0.016127422292103 0)
(1.0073251804636 -0.016869288717448 0)
(1.008086936252 -0.017578750630712 0)
(1.0089034681254 -0.018287458839772 0)
(1.0097304805845 -0.018942943257651 0)
(1.0106338527144 -0.019617710199685 0)
(1.0115128858701 -0.020190192392456 0)
(1.0125152285987 -0.020832798548005 0)
(1.0134185933938 -0.021269752163307 0)
(1.0145484445622 -0.021911778070246 0)
(1.0154196893829 -0.022130184971827 0)
(1.0167603858022 -0.022882854835486 0)
(1.0000005121713 -0.0005024065534564 0)
(1.0000401917192 -0.0015237050845309 0)
(1.0001186511973 -0.0025579463682906 0)
(1.0002382579783 -0.0035958180417312 0)
(1.0003994746243 -0.0046270125761402 0)
(1.0006014837072 -0.0056461625866742 0)
(1.0008429979192 -0.0066521838808699 0)
(1.0011232037904 -0.007646733553558 0)
(1.0014417814114 -0.0086321227252604 0)
(1.0017994173768 -0.0096105684357648 0)
(1.002196712907 -0.010582033053288 0)
(1.0026350875866 -0.011545659667248 0)
(1.0031145298276 -0.012497944934859 0)
(1.0036365251502 -0.013437408525231 0)
(1.0041994184209 -0.014359746164149 0)
(1.0048057558456 -0.01526654734594 0)
(1.005451325455 -0.016152360414203 0)
(1.0061422649034 -0.017023853949629 0)
(1.006868981139 -0.01787006463525 0)
(1.0076461874745 -0.018707125855878 0)
(1.0084515014339 -0.01950950479073 0)
(1.0093192558633 -0.020313872992395 0)
(1.0101971990089 -0.021059189869368 0)
(1.0111638509928 -0.021829913817283 0)
(1.0121001521274 -0.022483841947537 0)
(1.0131814815124 -0.023223010973884 0)
(1.0141450026863 -0.023723060900307 0)
(1.0153762418239 -0.024467214906601 0)
(1.0163021461748 -0.024714027257337 0)
(1.0177835742079 -0.025591776097781 0)
(1.0000004779035 -0.00054529499402528 0)
(1.0000408697562 -0.0016567230722509 0)
(1.0001210060776 -0.0027840046421162 0)
(1.0002434413285 -0.0039160542796173 0)
(1.0004086620289 -0.0050403887577968 0)
(1.0006157449545 -0.0061504889465217 0)
(1.0008632675792 -0.0072453932905207 0)
(1.0011503803832 -0.0083278708590593 0)
(1.0014768366453 -0.009401730741798 0)
(1.0018435777994 -0.010470484410154 0)
(1.0022514806971 -0.011534629498197 0)
(1.0027023850918 -0.012593178297342 0)
(1.0031964863658 -0.013641863767961 0)
(1.0037357201308 -0.014678586257158 0)
(1.0043183850922 -0.01569825078836 0)
(1.0049476716582 -0.016702561460661 0)
(1.0056189418016 -0.017685514444793 0)
(1.0063395881721 -0.018654844732259 0)
(1.0070988019576 -0.019598387723264 0)
(1.0079139070592 -0.020534593412776 0)
(1.0087594364863 -0.021434559082993 0)
(1.0096752551402 -0.022339983083414 0)
(1.0106017007683 -0.023181262161794 0)
(1.0116293025365 -0.024054769410737 0)
(1.0126217436448 -0.024797401004509 0)
(1.0137810226688 -0.025641536411056 0)
(1.0148049967709 -0.026211999422467 0)
(1.0161386103522 -0.02706894475537 0)
(1.0171209074463 -0.027349697428379 0)
(1.0187477915149 -0.028366893066238 0)
(1.0000004339428 -0.00058616312430322 0)
(1.0000410997262 -0.0017840867813168 0)
(1.0001220708023 -0.0030010248974377 0)
(1.0002460857551 -0.0042240109800722 0)
(1.0004136593415 -0.0054382252628653 0)
(1.0006237670205 -0.0066359100268668 0)
(1.0008748564344 -0.0078162721837218 0)
(1.0011660498247 -0.0089833523400165 0)
(1.0014971868905 -0.010142673874952 0)
(1.0018694829765 -0.011299227672806 0)
(1.0022841145537 -0.012454153705756 0)
(1.0027433706899 -0.013606344491597 0)
(1.0032476847456 -0.01475073275544 0)
(1.0037994771707 -0.01588454616408 0)
(1.0043970428564 -0.01700188147148 0)
(1.0050442487474 -0.018104570095484 0)
(1.005736114767 -0.019186112609169 0)
(1.0064812698542 -0.020255371950153 0)
(1.0072679288362 -0.021299077532046 0)
(1.0081157472519 -0.022337994309059 0)
(1.0089969631685 -0.023340073762882 0)
(1.0099557312377 -0.024351606454317 0)
(1.0109275201992 -0.025295494074781 0)
(1.012010698162 -0.026277761512187 0)
(1.0130589749449 -0.027118531174796 0)
(1.0142897148169 -0.028073653093764 0)
(1.0153784682353 -0.028726558136331 0)
(1.0168063691732 -0.029702812205956 0)
(1.0178550987633 -0.030030532904385 0)
(1.0196248510144 -0.031199339312295 0)
(1.0000003802102 -0.00062466720595902 0)
(1.0000408435057 -0.0019047094329463 0)
(1.0001217253623 -0.0032071410549982 0)
(1.000245943454 -0.0045170274195305 0)
(1.0004140441256 -0.0058170788127746 0)
(1.0006249051451 -0.0070982270027808 0)
(1.0008768503111 -0.008359891517767 0)
(1.001168981314 -0.0096075291855542 0)
(1.001501234939 -0.010848574930887 0)
(1.0018751137642 -0.012089668120777 0)
(1.0022921116315 -0.013332693971855 0)
(1.0027549867195 -0.014576441215722 0)
(1.0032644372798 -0.015815021350824 0)
(1.0038233919321 -0.017044949680458 0)
(1.0044301887426 -0.018259516139055 0)
(1.0050893860139 -0.019460698373091 0)
(1.0057957617726 -0.020641577677567 0)
(1.0065591437445 -0.021812200118047 0)
(1.0073670025334 -0.022958318423531 0)
(1.008241131776 -0.024102994833859 0)
(1.0091519817012 -0.025211269171529 0)
(1.0101474747729 -0.026333774900234 0)
(1.0111592201151 -0.027386333425709 0)
(1.0122922194262 -0.028484223948428 0)
(1.0133924486504 -0.029431066488673 0)
(1.0146891205938 -0.030505709800275 0)
(1.0158424651293 -0.031252036726833 0)
(1.0173566898634 -0.032354644875712 0)
(1.0184811958618 -0.032746947519331 0)
(1.02038462511 -0.03407700690091 0)
(1.0000003175619 -0.00066050715032895 0)
(1.0000400803519 -0.0020176296368208 0)
(1.0001199059993 -0.0034006883483688 0)
(1.0002428781217 -0.0047927162309535 0)
(1.0004095715493 -0.0061738498395001 0)
(1.000618770695 -0.0075336534053109 0)
(1.0008686838604 -0.0088717996712695 0)
(1.0011583994906 -0.010195288255803 0)
(1.0014879585096 -0.011513639859624 0)
(1.0018591567541 -0.012835291970564 0)
(1.0022738151928 -0.014162971027811 0)
(1.0027351704797 -0.015495381913502 0)
(1.0032442062693 -0.016825809030392 0)
(1.0038043717601 -0.018150029683645 0)
(1.0044140924438 -0.019460547014625 0)
(1.0050786230446 -0.020759508918817 0)
(1.0057925930891 -0.022039674099223 0)
(1.0065670009904 -0.023312315771034 0)
(1.0073887557484 -0.024562377888196 0)
(1.0082816927465 -0.025815181069731 0)
(1.0092147858252 -0.027033113511172 0)
(1.0102395323915 -0.028270986051607 0)
(1.0112841521311 -0.029437769981992 0)
(1.0124599790751 -0.0306580154361 0)
(1.0136058406115 -0.031718557425614 0)
(1.0149625536919 -0.032921903135649 0)
(1.0161755043008 -0.033771356653033 0)
(1.0177717375313 -0.03501185404858 0)
(1.0189695961775 -0.035480052449881 0)
(1.0210043907088 -0.036985828705049 0)
(1.0000002462357 -0.0006934361210036 0)
(1.0000388080973 -0.0021220400608194 0)
(1.0001166001983 -0.0035802563938699 0)
(1.0002368495551 -0.0050490448821529 0)
(1.0004001551814 -0.0065058933849525 0)
(1.0006052137367 -0.0079389554480071 0)
(1.0008501267769 -0.0093481918622763 0)
(1.0011339750236 -0.010742250627134 0)
(1.001456905829 -0.012132885802586 0)
(1.0018210068757 -0.013530460205201 0)
(1.0022284270687 -0.014938628423286 0)
(1.0026828796663 -0.016356034298787 0)
(1.0031856447537 -0.017775143249795 0)
(1.0037406946658 -0.01919098211957 0)
(1.0043465771485 -0.020595304627691 0)
(1.005009244107 -0.021990457075526 0)
(1.0057232502948 -0.02336898851669 0)
(1.0065007510836 -0.024743438386065 0)
(1.0073282265941 -0.026098126460591 0)
(1.0082315146102 -0.027460612189581 0)
(1.0091783240468 -0.028790855912061 0)
(1.0102236532143 -0.03014781927221 0)
(1.011292637973 -0.031433692774302 0)
(1.0125028446392 -0.032782508026113 0)
(1.0136863273272 -0.033964065852713 0)
(1.0150954257755 -0.035304863935602 0)
(1.0163611971767 -0.036267426469154 0)
(1.0180332842483 -0.037657132879339 0)
(1.0193000376191 -0.038213581387542 0)
(1.0214616868747 -0.03990973473456 0)
(1.0000001678343 -0.00072326947792639 0)
(1.0000370396274 -0.0022173195729044 0)
(1.0001118368741 -0.0037447439066746 0)
(1.0002279041351 -0.005284410794961 0)
(1.0003858566772 -0.0068111127526379 0)
(1.000584309631 -0.0083115629070762 0)
(1.0008212670731 -0.0097860381320293 0)
(1.0010958052677 -0.011244917441755 0)
(1.0014081751671 -0.012702306492161 0)
(1.0017607463113 -0.014170596229068 0)
(1.0021559862768 -0.015654445289419 0)
(1.0025980725596 -0.01715246087175 0)
(1.0030885821291 -0.018656310630296 0)
(1.0036320035358 -0.020160269891276 0)
(1.0042270277299 -0.021655395707818 0)
(1.004880301339 -0.023144263413038 0)
(1.0055863530369 -0.024619334412225 0)
(1.0063584919972 -0.026094456989454 0)
(1.0071828577999 -0.027553504069766 0)
(1.0080872786377 -0.029026299815814 0)
(1.0090383558624 -0.030470544920122 0)
(1.0100945446086 -0.031949445379966 0)
(1.0111781756851 -0.033358395078348 0)
(1.0124129263695 -0.034841244680234 0)
(1.0136245565755 -0.036150462938142 0)
(1.0150766275965 -0.037636975968858 0)
(1.0163866573781 -0.038722346542147 0)
(1.0181264995601 -0.040272217383807 0)
(1.0194553892446 -0.040929990888857 0)
(1.0217371371828 -0.042830385413221 0)
(1.0000000831155 -0.00074988973852368 0)
(1.0000348025229 -0.0023030500052958 0)
(1.0001056886237 -0.0038933885615622 0)
(1.0002161722085 -0.005497683713711 0)
(1.0003668771564 -0.0070880126313329 0)
(1.0005563441306 -0.0086496320069189 0)
(1.0007824886199 -0.010183155915113 0)
(1.0010443835423 -0.011700753932848 0)
(1.0013423748373 -0.013218970651179 0)
(1.001679095368 -0.014752301753595 0)
(1.0020573125789 -0.016306472603885 0)
(1.0024816437656 -0.017880077970365 0)
(1.0029539536643 -0.019464020671236 0)
(1.0034792288327 -0.021051832533249 0)
(1.0040563156944 -0.022633941592058 0)
(1.0046925392693 -0.024213181845406 0)
(1.0053824425149 -0.025782054998636 0)
(1.006140458587 -0.027355766074209 0)
(1.0069524898304 -0.028917895013831 0)
(1.0078482544321 -0.030500626614071 0)
(1.0087935305517 -0.032059451996272 0)
(1.0098499045137 -0.033662155066288 0)
(1.0109375994741 -0.035196983562165 0)
(1.0121856520827 -0.03681853692347 0)
(1.0134148170142 -0.038260921354301 0)
(1.0148987326032 -0.039900918907771 0)
(1.0162428845035 -0.041118130060346 0)
(1.0180405910742 -0.042838611213559 0)
(1.0194225660581 -0.043610788538053 0)
(1.0218150308026 -0.045728025821929 0)
(0.99999999409166 -0.00077324437196483 0)
(1.000032134209 -0.0023790120675868 0)
(1.0000982593627 -0.0040257641514835 0)
(1.0002018542741 -0.0056882091239479 0)
(1.0003435389038 -0.0073357125180883 0)
(1.0005217855244 -0.0089520684763268 0)
(1.000734430732 -0.010538241191366 0)
(1.0009805438431 -0.012108227415826 0)
(1.0012605541139 -0.013681068046782 0)
(1.0015773300732 -0.015273414431528 0)
(1.0019339117339 -0.016892108420808 0)
(1.0023353175805 -0.018535754694713 0)
(1.0027836856749 -0.020194534355443 0)
(1.0032844631888 -0.02186124718663 0)
(1.0038366667749 -0.023525773504845 0)
(1.0044482525375 -0.025191226223398 0)
(1.0051138335089 -0.026850283778456 0)
(1.0058488774872 -0.028519551578134 0)
(1.0066392030251 -0.030182453956759 0)
(1.0075161969407 -0.031873686401577 0)
(1.008445230767 -0.033546501784051 0)
(1.0094904502183 -0.03527371791879 0)
(1.0105709343655 -0.036936016886879 0)
(1.0118199374986 -0.038699726866715 0)
(1.0130548818215 -0.040279664846566 0)
(1.0145579907653 -0.04207999012726 0)
(1.0159246573478 -0.043437196865799 0)
(1.0177688575934 -0.045338556966387 0)
(1.0191927803611 -0.046238125831381 0)
(1.0216853664474 -0.048582884280254 0)
(0.99999990138299 -0.00079333904864816 0)
(1.0000290764381 -0.0024451650557422 0)
(1.0000896695733 -0.004141747102364 0)
(1.0001851869808 -0.005855762781065 0)
(1.000316237137 -0.0075538963066747 0)
(1.0004812289408 -0.0092184845278446 0)
(1.0006779263384 -0.010850842281205 0)
(1.0009053893198 -0.012466798615958 0)
(1.0011641162126 -0.014087913766527 0)
(1.0014571721569 -0.015733019761201 0)
(1.0017878410994 -0.017410117665694 0)
(1.0021614850996 -0.019117843728626 0)
(1.0025805109692 -0.020845716658598 0)
(1.0030507553553 -0.022585812997682 0)
(1.0035714504765 -0.024327565228602 0)
(1.0041510635214 -0.026074356108159 0)
(1.0047844014628 -0.027819203158684 0)
(1.0054877454408 -0.029580102078347 0)
(1.0062471009423 -0.031340504343946 0)
(1.0070951250767 -0.033137699741321 0)
(1.0079973315374 -0.034922769071665 0)
(1.0090196949555 -0.036773885007316 0)
(1.0100812254294 -0.038564027548479 0)
(1.0113179677386 -0.040471852478997 0)
(1.0125462170423 -0.042192399884852 0)
(1.0140536953349 -0.044158778318758 0)
(1.0154311090243 -0.045662009018097 0)
(1.0173054954387 -0.047756389006419 0)
(1.0187647977782 -0.048791434300424 0)
(1.0213305525238 -0.051379677417265 0)
(0.99999980514966 -0.00081023198957104 0)
(1.0000256728887 -0.0025016259941663 0)
(1.0000800483843 -0.0042414707081515 0)
(1.0001664252257 -0.0060004647844552 0)
(1.000285393178 -0.0077426733569149 0)
(1.0004353120573 -0.0094490044548668 0)
(1.0006138940236 -0.01112112510164 0)
(1.0008201775633 -0.012776670071363 0)
(1.0010547076944 -0.014439698492108 0)
(1.0013206749655 -0.01613120804556 0)
(1.0016215830138 -0.017860392501183 0)
(1.0019630455324 -0.019625931155062 0)
(1.002347773925 -0.021416763556078 0)
(1.0027818597499 -0.02322423553308 0)
(1.0032648892295 -0.025037472662869 0)
(1.0038055734347 -0.026860053776407 0)
(1.0043992222442 -0.028685590199779 0)
(1.0050624212573 -0.030533286677797 0)
(1.0057819598785 -0.032387044883219 0)
(1.0065909135116 -0.034286434678244 0)
(1.0074559312778 -0.036180960064336 0)
(1.0084435445866 -0.038153737044246 0)
(1.0094742724571 -0.040070817973732 0)
(1.0106849695983 -0.042122741600979 0)
(1.0118935647647 -0.043985509260224 0)
(1.0133893367437 -0.046121189335345 0)
(1.0147641877087 -0.047774671725876 0)
(1.0166493478902 -0.050070853461001 0)
(1.0181352640014 -0.051249344182886 0)
(1.0207473571551 -0.054093411000675 0)
(0.99999970114235 -0.00082405525774687 0)
(1.0000219921901 -0.0025486994741526 0)
(1.0000695893182 -0.0043253248954989 0)
(1.000145926324 -0.0061227348550303 0)
(1.0002515557107 -0.0079024765056228 0)
(1.0003848040802 -0.0096440666595367 0)
(1.0005433788867 -0.011349513993738 0)
(1.0007263004705 -0.013038208726298 0)
(1.0009341509401 -0.014736676263814 0)
(1.0011701277031 -0.016468047594299 0)
(1.001437937691 -0.018242747009083 0)
(1.001743292947 -0.020059486815093 0)
(1.0020893203083 -0.021906725599367 0)
(1.0024821166846 -0.023775007442417 0)
(1.0029219384504 -0.025653331790526 0)
(1.0034171940945 -0.027545262495304 0)
(1.0039644048927 -0.029445421828725 0)
(1.0045793241618 -0.031373718481741 0)
(1.0052510187229 -0.033315413473598 0)
(1.0060108003714 -0.035311256138944 0)
(1.0068292808542 -0.037310883758639 0)
(1.0077696782026 -0.039400387245686 0)
(1.0087589636042 -0.041441573407407 0)
(1.0099284139163 -0.043634187097581 0)
(1.0111058680967 -0.045638402470352 0)
(1.0125720561908 -0.047942734193831 0)
(1.0139322481296 -0.049747502521776 0)
(1.0158061485246 -0.052246823099448 0)
(1.0173037530267 -0.053571724893214 0)
(1.0199421293545 -0.05667017174165 0)
(0.99999959095389 -0.00083511266362841 0)
(1.0000182301941 -0.0025871797078868 0)
(1.0000587116864 -0.0043943561395242 0)
(1.0001243337468 -0.0062237604119736 0)
(1.0002156179065 -0.0080346355410195 0)
(1.0003309110519 -0.0098051844577575 0)
(1.0004679696289 -0.011537685908343 0)
(1.0006257569906 -0.013253112887112 0)
(1.0008048701897 -0.014980351792908 0)
(1.0010083609022 -0.016744668927698 0)
(1.0012401562057 -0.018557830327327 0)
(1.0015059049138 -0.020418654159435 0)
(1.0018093697118 -0.022315288606355 0)
(1.0021563234663 -0.024237386329887 0)
(1.0025481852497 -0.026174013295312 0)
(1.0029922049144 -0.02812834673378 0)
(1.0034872686969 -0.030096542085682 0)
(1.0040463303617 -0.032098326919335 0)
(1.004663505959 -0.034121737448314 0)
(1.0053639715005 -0.036206600434428 0)
(1.0061285816482 -0.038305946951989 0)
(1.0070078706684 -0.040504448611704 0)
(1.0079485765823 -0.042665848316771 0)
(1.0090572506005 -0.044991923856031 0)
(1.0101987188659 -0.047135532927396 0)
(1.0116078644289 -0.049605377263344 0)
(1.0129569714946 -0.051559032151086 0)
(1.0147809348631 -0.054271451418991 0)
(1.0163072218745 -0.055719773483774 0)
(1.0189173154001 -0.059130009427013 0)
(0.99999946876994 -0.00084399227894105 0)
(1.0000147259261 -0.0026189599910314 0)
(1.0000481180462 -0.0044515168359967 0)
(1.0001025167291 -0.0063075449971266 0)
(1.0001785126591 -0.0081443057366786 0)
(1.0002746848581 -0.0099389216944277 0)
(1.0003890319015 -0.011693978764123 0)
(1.0005204085724 -0.013431891810853 0)
(1.0006692227628 -0.015183660896044 0)
(1.000838125072 -0.016976519591766 0)
(1.0010312391918 -0.018823629354783 0)
(1.0012540823282 -0.020724063360402 0)
(1.0015113066489 -0.022665961869355 0)
(1.0018082323432 -0.024638154600194 0)
(1.0021478392468 -0.026630174419695 0)
(1.0025355614446 -0.028644576953254 0)
(1.0029734924042 -0.030679887555513 0)
(1.0034700484795 -0.032754729469306 0)
(1.0040268244567 -0.034862076846537 0)
(1.0046584224857 -0.037037926163132 0)
(1.0053627514942 -0.039244263858659 0)
(1.0061661560382 -0.041556464761914 0)
(1.0070532392614 -0.043853288049278 0)
(1.0080764993493 -0.046321045236039 0)
(1.0091836829431 -0.048630125716636 0)
(1.0104911376941 -0.051282388207697 0)
(1.0118524405788 -0.053419796099046 0)
(1.0135500434097 -0.056401481080732 0)
(1.0152008321889 -0.057994447660497 0)
(1.0177040282456 -0.062030372324973 0)
(0.99999924344551 -0.00085208196525929 0)
(1.0000108273036 -0.0026484843315191 0)
(1.000037075167 -0.0045059833638286 0)
(1.0000797208154 -0.0063893110184819 0)
(1.0001396440638 -0.0082531194360051 0)
(1.0002159009225 -0.010073212293603 0)
(1.0003069834658 -0.011852348690032 0)
(1.0004118829609 -0.013614669750303 0)
(1.0005307643614 -0.015393787256743 0)
(1.0006657437481 -0.017219120675994 0)
(1.0008206740553 -0.019105346553444 0)
(1.0010006990191 -0.021051639277866 0)
(1.0012111437917 -0.023045838645461 0)
(1.0014569673283 -0.025075823425543 0)
(1.0017425607478 -0.027131658935918 0)
(1.002072002568 -0.029215555630131 0)
(1.0024502228404 -0.031329049686528 0)
(1.0028820354988 -0.033489598598845 0)
(1.0033754271004 -0.035696621358939 0)