/*--------------------------------*- C++ -*----------------------------------*\
| =========                 |                                                 |
| \\      /  F ield         | OpenFOAM: The Open Source CFD Toolbox           |
|  \\    /   O peration     | Version:  2112                                  |
|   \\  /    A nd           | Website:  www.openfoam.com                      |
|    \\/     M anipulation  |                                                 |
\*---------------------------------------------------------------------------*/
FoamFile
{
    version     2.0;
    format      ascii;
    arch        "LSB;label=32;scalar=64";
    class       volScalarField;
    location    "17.3";
    object      p;
}
// * * * * * * * * * * * * * * * * * * * * * * * * * * * * * * * * * * * * * //

dimensions      [0 2 -2 0 0 0 0];

internalField   nonuniform List<scalar> 
22000
(
0.031199183286814
0.031176190342436
0.031128821992025
0.031055859915763
0.030956806344409
0.030831698192836
0.030680782364795
0.030504319749571
0.03030251098108
0.030075501882638
0.029823422618311
0.029546425070788
0.029244693582275
0.028918447808999
0.028567930508538
0.028193414044259
0.027795185416023
0.027373570963472
0.026928904825132
0.026461581735911
0.025971981673907
0.025460586078247
0.024927806042145
0.024374243892349
0.023800303522848
0.02320677841899
0.02259397219037
0.021963016595295
0.021313891816282
0.020648356064399
0.031627893457757
0.031603763436411
0.031555071225352
0.031480683406833
0.031380045155532
0.031253112921955
0.0311000793707
0.030921178954609
0.030716599407642
0.03048647605586
0.030230924865418
0.029950080715893
0.029644107911719
0.029313206974608
0.028957599109677
0.028577538730596
0.028173289863096
0.027745163610137
0.02729346790786
0.026818588261428
0.026320871496279
0.02580080291439
0.025258744485596
0.024695328408491
0.024110870940479
0.023506243083141
0.022881568759346
0.022238125000578
0.021575474344812
0.020895517624214
0.032413075431619
0.032388244358293
0.032338208067148
0.032261919732248
0.032158879740866
0.032029042968753
0.031872568702357
0.031689652772555
0.031480449086353
0.031245063978425
0.030983584043654
0.030696113742989
0.030382782417341
0.030043755973714
0.029679215783365
0.029289381576365
0.028874473887203
0.028434773394652
0.027970538820564
0.027482136428293
0.02696985202411
0.02643417664839
0.025875383588475
0.025294164575262
0.024690681794003
0.024065975887513
0.023419862722294
0.022753978696965
0.022067156660317
0.02136176209307
0.033501515159307
0.033475987677408
0.03342454889247
0.033346143902647
0.033240281066009
0.03310691230881
0.032946174490032
0.032758228152512
0.032543185745308
0.032301110820247
0.032032044551227
0.03173604519691
0.031413190242209
0.031063594106133
0.03068737856818
0.030284710113484
0.029855742867404
0.029400709031088
0.028919792002864
0.02841332444453
0.027881499453013
0.02732480913405
0.026743394643106
0.026138023035748
0.025508629674534
0.024856479413234
0.024180933111654
0.023484094393337
0.022763718617892
0.022022748241381
0.034846757000852
0.034820508404573
0.03476760730502
0.034686974602364
0.034578109456674
0.034440948414093
0.034275597569083
0.034082174214233
0.033860738300078
0.033611295997268
0.033333825344866
0.033028319394997
0.032694782883478
0.032333257595923
0.031943781843016
0.031526445895053
0.031081310214603
0.030608535190996
0.030108197783298
0.029580576167984
0.029025733671265
0.028444149863393
0.027835784263621
0.027201483528193
0.02654088046232
0.025855504729066
0.025144127402406
0.02440942639917
0.023647800256326
0.022862923692928
0.036407455944215
0.036380526557381
0.036326240327656
0.036243494540568
0.036131774759499
0.035990991548193
0.035821206449577
0.035622478954685
0.035394800999753
0.035138104254735
0.034852283978805
0.034537246560294
0.03419290002469
0.033819188692071
0.033416039700522
0.032983439766094
0.032521324123428
0.03202975271135
0.031508660091643
0.030958242510373
0.030378391496931
0.029769552885436
0.029131452318932
0.028465010323921
0.027769482490091
0.027046692935579
0.026294700367529
0.025516842701083
0.024707905539495
0.023872386591429
0.038146228938605
0.038118744741406
0.038063324511117
0.037978840761539
0.037864759277013
0.037720954180506
0.037547429090794
0.037344170620962
0.037111085970203
0.03684801379285
0.036554745497145
0.036231077590394
0.035876795282045
0.035491717757661
0.03507563010471
0.034628384158727
0.034149754347916
0.033639666319591
0.03309787160138
0.032524450283388
0.031919075224729
0.031282128085187
0.030613043472536
0.029912798579467
0.029180195960149
0.028417363557041
0.027621528040836
0.026796737083826
0.025935920836021
0.025044416898695
0.040028749160452
0.040000915340902
0.03994477840526
0.039859180794315
0.039743559354408
0.039597740925255
0.039421658791487
0.039215212293297
0.038978207181287
0.038710370086689
0.038411366850623
0.0380808598902
0.037718484143266
0.037323903901239
0.036896728899823
0.036436641381589
0.035943215934725
0.035416205112691
0.034855132317936
0.034259920273559
0.033629971048234
0.032965562176105
0.032265775774486
0.031531613070481
0.030761344124392
0.029957388759073
0.029116026812293
0.028242028837078
0.02732625026681
0.026374813027114
0.042023210949638
0.041995303014744
0.041939003676557
0.041853126789385
0.041737075601868
0.0415906203349
0.041413611369781
0.04120584560902
0.040967009567763
0.040696698151562
0.0403944298636
0.040059708895198
0.039691992441793
0.039290759394412
0.038855409700586
0.038385419022426
0.037880120737119
0.037339051434592
0.036761457799028
0.036147057402197
0.035494925087568
0.034805183918943
0.034076497012387
0.033309842941135
0.032502878987339
0.03165828043864
0.030771272000158
0.029847321159309
0.02887501262449
0.027861113801234
0.044100015909375
0.044072368475484
0.044016578022498
0.043931437487928
0.043816315484696
0.043670917076603
0.043494997425404
0.043288237042427
0.043050187856342
0.042780295176946
0.042477908861792
0.042142350593424
0.041772872780061
0.041368738885246
0.040929105275374
0.040453203520502
0.039940083751697
0.039389021033194
0.038798934699289
0.038169283953272
0.037498756716413
0.036787262179167
0.036032975389234
0.035236789127931
0.034395666056862
0.033512476666934
0.032581290009809
0.031608200510328
0.030579352097167
0.029501926449052
0.046231656542718
0.046204651168961
0.046150136853387
0.046066896501065
0.045954265200549
0.045811876041812
0.045639378189179
0.045436323462081
0.045202115899799
0.044936036468018
0.044637249377027
0.044304872905039
0.043937929304272
0.043535437578876
0.043096278362153
0.042619402750659
0.042103537079505
0.041547648661571
0.040950278825379
0.040310571329094
0.039626766279084
0.038898490921421
0.038123360786683
0.037302105661685
0.036430913010221
0.035512760501062
0.034540469453638
0.0335206452921
0.032436845831012
0.031296336845279
0.048392744651292
0.048366796958609
0.048314394955564
0.048234325430854
0.048125893506492
0.04798865541436
0.047822146002893
0.047625779172219
0.047398801360226
0.047140318138345
0.046849294862326
0.046524630113029
0.046165096470424
0.045769443581772
0.045336247193134
0.044864143883658
0.044351498826136
0.043796926848837
0.043198543069155
0.042555117108296
0.041864381194805
0.041125606299609
0.040335777895449
0.03949537022216
0.038599716417949
0.037651788235764
0.036643077554777
0.035580535689637
0.034445018090198
0.03324344123645
0.050560101182338
0.050535645495064
0.050486231517173
0.050410665851147
0.050308228951316
0.050178397968901
0.050020588469938
0.049834071160932
0.049617929741635
0.049371088272546
0.049092305383018
0.048780248922982
0.048433427867165
0.048050304324894
0.047629127302587
0.047168189385525
0.046665462104032
0.046119166405452
0.04552694789092
0.044887144391352
0.044196924124715
0.043455123088445
0.042658028601271
0.041805755511647
0.040892708736351
0.039921713380973
0.03888286253008
0.03778324034651
0.036600911655942
0.035341903710097
0.052712865283841
0.052690340027517
0.052644798515969
0.052575085618645
0.052480464897093
0.052360334640018
0.052213989723605
0.052040556951149
0.051838957432462
0.051607933384528
0.05134603518953
0.051051695578986
0.050723153189279
0.050358571368376
0.049955858660495
0.049512942979457
0.049027377680115
0.048496953872197
0.047918811390929
0.047290802266926
0.046609481359216
0.045873170276602
0.045077396865267
0.044221802210915
0.043299796368388
0.042313894598717
0.041252736778204
0.040123277077838
0.038900735134732
0.037589602855613
0.05483258919872
0.05481242182342
0.054771617418596
0.054709078662119
0.05462406130471
0.054515888097245
0.054383735924267
0.054226591816053
0.054043220097096
0.053832187043979
0.053591840210908
0.053320380291901
0.053015777141214
0.052675892682984
0.052298290513095
0.051880522105568
0.05141970953136
0.05091318730858
0.050357562759129
0.049750154269782
0.049086863759406
0.048365421173888
0.047580543012631
0.046731277288015
0.045809985167257
0.044818686601304
0.043744533491034
0.042594041598255
0.041339564345888
0.039983306012584
0.056903298680109
0.056885893068107
0.056850643350705
0.056796531561835
0.056722816712787
0.056628751349825
0.056513400702285
0.056375621213542
0.056214032063708
0.056027035927374
0.055812790091798
0.05556927410374
0.055294199378591
0.054985133182719
0.054639300138316
0.054253874038057
0.053825543966911
0.053351172946334
0.052826822617358
0.052249239132779
0.051613644226612
0.050917104812594
0.050153487501554
0.049321124697667
0.048411290258694
0.047425309225978
0.046348837354574
0.045187601124054
0.043911108952669
0.042518422008935
0.058911504008641
0.058897228876731
0.05886828282572
0.058823748120346
0.058762899549425
0.058684927499676
0.058588795359743
0.058473242571368
0.05833676021739
0.058177605931865
0.057993766363953
0.057783018711646
0.057542835079774
0.057270504540128
0.056962929500522
0.056616916482705
0.056228732546884
0.055794766903179
0.05531053690955
0.054772192259738
0.054174262303893
0.053513089944242
0.052781669152496
0.05197749709547
0.051090739284729
0.050121810474611
0.049054895066906
0.047894551817104
0.046607522943066
0.045188775649466
0.0608461594095
0.0608353381079
0.060813354931873
0.060779417963632
0.060732829023598
0.060672723429988
0.060597975878821
0.060507227293085
0.060398862566904
0.060271018174263
0.06012153604088
0.059948017488647
0.059747722944033
0.059517689452421
0.059254524364604
0.058954689652253
0.058614053891809
0.058228544925372
0.057793150940771
0.05730341762482
0.056753185977496
0.056138031543643
0.055450070443634
0.054685859222196
0.053834452258061
0.052895128720407
0.051850644939098
0.050703980088673
0.04941927760268
0.047986419610357
0.062698568138061
0.062691474730683
0.062677017351608
0.062654549050711
0.062623409176414
0.062582691674297
0.062531197956149
0.062467491445048
0.062389877090706
0.062296398850268
0.062184784609329
0.062052492121937
0.061896604801183
0.061713943294676
0.061500857071315
0.061253499281775
0.060967375183689
0.060637980705954
0.060259802014529
0.05982779480647
0.059335124423097
0.058776583452748
0.058143409545367
0.057431152792544
0.056627768290958
0.055731214463179
0.054722851518057
0.053603617360926
0.052335227882365
0.0509014986881
0.06446224613261
0.064459105007185
0.06445262710163
0.064442332097203
0.06442761310213
0.064407532111015
0.064380834127556
0.064346028024264
0.064301368144019
0.064244840730214
0.064174096997845
0.064086487588501
0.063978956994094
0.063848151688542
0.063690209447343
0.063501023008504
0.063275780400668
0.063009594027381
0.062696486123492
0.06233086634251
0.061905238753597
0.061413640768072
0.060846401045904
0.06019806456783
0.059455437809808
0.058615151195039
0.057657166452581
0.056580075151739
0.055343027663209
0.053922626606945
0.066132721305358
0.06613371368823
0.066135580803438
0.06613801353793
0.066140461966256
0.066141977645254
0.066141275507633
0.066136831495674
0.06612687439386
0.066109369257722
0.066081936064835
0.066041861200489
0.065985993739716
0.065910852374534
0.065812417379404
0.06568637672901
0.065527658540481
0.0653310534991
0.065090173513026
0.064798955820997
0.06444926852396
0.064034486584442
0.063543956777861
0.062971334632682
0.062301979012488
0.061531481367963
0.060637990986419
0.059618670563965
0.058428945510566
0.057037785904181
0.067707312869286
0.067712581711399
0.067723086821627
0.067738677227425
0.067758849137166
0.06778265582554
0.067808819539282
0.067835817466484
0.067861878048253
0.067884976160205
0.067902737439657
0.067912421797852
0.067910837676272
0.067894430752163
0.067859091399009
0.06780035696664
0.067712972138235
0.067591460998806
0.067429112596854
0.067219453890864
0.066953800898363
0.066624971142087
0.066221326931273
0.065735876579441
0.065152023961661
0.064464883157975
0.063648917004758
0.062702718306208
0.061575176985581
0.060233197936886
0.069184931595492
0.069194525727979
0.069213825602795
0.069242849068345
0.069281138289859
0.069327720854586
0.069381330639487
0.069440509563804
0.069503542856274
0.069568448689484
0.069632861225557
0.069694023445414
0.069748759747478
0.069793500862675
0.069824124227194
0.06983605606624
0.069823959040425
0.069782111149346
0.069703631166518
0.069581596616613
0.069407018595156
0.069172024711949
0.068864390425583
0.068476339430377
0.067989699200472
0.067399196221319
0.066673422152046
0.065813681405749
0.064753774256911
0.063481998966294
0.070566030909372
0.070579812176995
0.070607744255832
0.070650119349346
0.070706569644724
0.070776070580334
0.070857270560678
0.070948845825316
0.071049338117299
0.071156859784147
0.071268978172797
0.071382893518472
0.071495497995952
0.071603256252714
0.071702102736402
0.071787370229212
0.071853740066361
0.071895204278372
0.071904909218534
0.07187527506444
0.071797489626915
0.071662327315849
0.071458194538632
0.071174790635864
0.070795586030288
0.070311394865575
0.069691761651727
0.068930449349371
0.067941983865839
0.06671956350947
0.071852969577844
0.07187069166928
0.071906531532796
0.071961602223874
0.072035577328097
0.07212734940826
0.072235302462501
0.072358050885677
0.072494922669098
0.072644290816086
0.072803622792114
0.072970076135567
0.073140631798507
0.073311819077429
0.073479702899242
0.073639625202323
0.073786423721944
0.073913864807155
0.074015280580973
0.074082332956744
0.07410683086327
0.074077553305421
0.073985008574678
0.073813728945802
0.073554082423556
0.073183808322007
0.072694537552804
0.072047198141233
0.071199003559109
0.069964556072631
0.020007927866978
0.019395800174194
0.018770833886541
0.018134194969242
0.017487020883736
0.016830211269614
0.016164465718284
0.0154904158032
0.014808725308945
0.014120121695332
0.013425386075302
0.012725331845453
0.012020788841468
0.011312596479296
0.010601603091736
0.0098886665126969
0.0091746549707658
0.0084604459828651
0.007746924166601
0.0070349789269294
0.0063255037491868
0.0056193980483138
0.0049175734505633
0.0042209620752446
0.0035305059705436
0.0028469150499652
0.0021708639413488
0.0015031866082949
0.00084477301238207
0.0001964775138815
-0.00044091075445811
-0.0010666555024753
-0.0016800575883672
-0.0022804446043929
-0.002867173933543
-0.0034396316285889
-0.0039972424818234
-0.0045394624688376
-0.0050657958646245
-0.0055757732275824
-0.0060689878484962
-0.0065450421409851
-0.0070036314162856
-0.0074444196229125
-0.0078672316366775
-0.0082717672117187
-0.0086580443714601
-0.0090257559196357
-0.0093753101018252
-0.0097064186623266
0.020244206120068
0.019624247553722
0.018989569153552
0.018342745576554
0.017685590140017
0.01701897060507
0.016343249057385
0.015658759355626
0.01496602257429
0.014265736297624
0.013558693416045
0.012845719650517
0.012127647227206
0.011405313985765
0.010679572707742
0.0099512983332513
0.0092213889750089
0.0084907630247686
0.0077603544481399
0.0070311081050772
0.0063039734423941
0.005579894882581
0.0048597940340401
0.0041445449590161
0.003434970300495
0.0027321659944285
0.002037254222883
0.0013511394774034
0.00067462798086545
8.5214111944101e-06
-0.00064636533121919
-0.0012892225400568
-0.0019192686941512
-0.0025357555257326
-0.0031379774140197
-0.0037252629450097
-0.0042969915738769
-0.0048525724378734
-0.0053914804983624
-0.0059132048781755
-0.0064173303782984
-0.0069034162618616
-0.0073711820926927
-0.0078202261002647
-0.0082504512500233
-0.0086614134852821
-0.0090532844789979
-0.009425342865278
-0.0097780928289
-0.010109617825706
0.020688040914537
0.020046089132054
0.019385208279768
0.018711170468725
0.018027428949816
0.017334956129073
0.016633553749661
0.015923065708886
0.01520383058449
0.014476577448471
0.013742196153132
0.013001590670281
0.01225563394678
0.011505182045584
0.010751103565705
0.0099942976356016
0.0092356958724379
0.0084762553152879
0.007716949797863
0.0069587631918191
0.006202685162306
0.0054497098321185
0.0047008391355985
0.0039570936012323
0.0032195241345349
0.0024891157221041
0.0017668121576075
0.0010535562922445
0.00035026980309762
-0.00034214824286781
-0.0010228228053629
-0.0016909026125932
-0.0023455722373205
-0.0029860494228994
-0.0036116020088782
-0.0042215300788732
-0.0048151974170939
-0.0053919870685852
-0.0059513723498589
-0.0064928111383472
-0.0070159087838012
-0.0075201724961212
-0.00800538564649
-0.0084710355884244
-0.0089171754624914
-0.0093430912340266
-0.0097492557216578
-0.010134185533502
-0.010498686308376
-0.010837923921266
0.021315926704751
0.020638931725116
0.019937064161551
0.019221204456474
0.018497259066518
0.017766244166894
0.017027038542707
0.016278725903879
0.015521376252201
0.014755769811224
0.013982929859917
0.013203852187704
0.012419438561928
0.011630537514335
0.0108380056922
0.010042742506879
0.0092456931904975
0.0084478371837182
0.0076501755240176
0.0068537231888637
0.0060595053701878
0.0052685557542025
0.0044819129390016
0.0037006132182277
0.0029256778004282
0.002158119082425
0.0013989417104588
0.00064913511837726
-9.0332033794934e-05
-0.00081851515760114
-0.0015345019339703
-0.0022374084604166
-0.0029263920502035
-0.003600639552038
-0.0042593931811372
-0.0049019181987682
-0.0055275576214475
-0.0061356535247693
-0.006725670361155
-0.0072970098180311
-0.0078492945595336
-0.0083819375763767
-0.0088947976384019
-0.0093871756974406
-0.009859325803689
-0.010310107068892
-0.01074040865998
-0.011147540510941
-0.011532611040602
-0.011886008648763
0.022114391924427
0.021391263091626
0.020635462122897
0.019864950898184
0.019088878811812
0.018308185870955
0.017520425566916
0.01672364559845
0.01591757550481
0.015103082991454
0.014281372921053
0.013453553171718
0.012620548302
0.011783182514924
0.010942284658548
0.010098743473886
0.0092535108084173
0.0084075821257616
0.0075619774613012
0.0067177310000238
0.0058758865599847
0.0050374956158113
0.0042036141727688
0.003375299189546
0.0025536046863958
0.0017395803772129
0.00093426537971318
0.00013868295185263
-0.00064616723086771
-0.0014193084689111
-0.0021797971969759
-0.0029267159259765
-0.0036591920067306
-0.0043763767806981
-0.0050774845618208
-0.0057617400209094
-0.0064284638529977
-0.0070769473743228
-0.0077066467246863
-0.0083168902766473
-0.0089073252596977
-0.0094772377944714
-0.010026585756928
-0.010554414482116
-0.011061239432431
-0.011545331843049
-0.012008125056289
-0.012445285308663
-0.012858345449489
-0.0132312822029
0.0230750902546
0.022295854694151
0.021474040589275
0.020636865505828
0.019797556692976
0.018956824943495
0.018110466122923
0.017255215808171
0.016390410778021
0.015517063170463
0.014636619404352
0.013750325002812
0.012859124478263
0.011963803395836
0.011065149901967
0.010164034439912
0.0092614106781447
0.0083582855667833
0.0074556923712361
0.006554677538286
0.0056562969601579
0.0047616160543118
0.0038717081015702
0.0029876514634033
0.0021105241146867
0.0012413980366746
0.00038133348839441
-0.0004686234815923
-0.0013074498508234
-0.0021341429782713
-0.0029477343148744
-0.0037472775756857
-0.0045318753226794
-0.0053006466216219
-0.0060527834272904
-0.0067874713450448
-0.0075040151523733
-0.0082016527196538
-0.0088798405637345
-0.0095378222716592
-0.010175285014459
-0.010791359396222
-0.011386136334498
-0.0119583398172
-0.012508824995306
-0.01303511824087
-0.013539359963186
-0.014015123900281
-0.014464507046214
-0.014863229571894
0.024192585995915
0.023348029537089
0.022448669640918
0.021533408874533
0.020620425053528
0.019709981685286
0.018795628247779
0.01787250014933
0.016939504213476
0.01599787090697
0.015049356084502
0.014095367386132
0.013136862017094
0.012174570489553
0.011209227485987
0.010241678306482
0.0092728750621107
0.0083038326233986
0.0073355924471606
0.0063692073639671
0.0054057390681189
0.0044462602090679
0.0034918533961843
0.0025436081906763
0.0016026143874237
0.0006699573633548
-0.00025328842803511
-0.0011660610458794
-0.0020673215953638
-0.002956048775237
-0.0038312568090981
-0.0046919773089419
-0.0055372956440111
-0.0063663037583081
-0.0071781786700276
-0.0079720694763767
-0.0087472733187763
-0.0095029723912009
-0.01023863492511
-0.010953408348302
-0.011647040029555
-0.01231847545914
-0.012967981482134
-0.013593891223485
-0.014197493458281
-0.014775399058181
-0.015330640796712
-0.015854198330317
-0.016348875497093
-0.016780050687585
0.025463934724994
0.024545456639757
0.023557394259729
0.022553064976861
0.021556506725078
0.020567234629454
0.019575996455278
0.018576027580667
0.017565787430978
0.016546818693536
0.015521261171392
0.014490707175377
0.013456116589486
0.012418146875618
0.01137746727909
0.010334893644733
0.0092913750060071
0.0082479321133629
0.007205610722191
0.0061654641915965
0.005128553064622
0.0040959497189027
0.0030687382189595
0.0020480114046077
0.0010348633441016
3.0385169119782e-05
-0.00096434259913205
-0.0019482503334128
-0.0029202919230816
-0.0038794357215811
-0.0048246878873154
-0.0057550662682823
-0.0066696487751072
-0.0075675077550919
-0.008447815979465
-0.0093096913160716
-0.010152435850651
-0.010975177051275
-0.01177741253527
-0.012558185140585
-0.013317331845327
-0.014053584120769
-0.014767440746178
-0.015456768598928
-0.016123403930396
-0.016762850369814
-0.01737925244685
-0.017960436882427
-0.018510108862809
-0.018981011011503
0.026887912732648
0.025887395905155
0.024799706538049
0.02369564221147
0.022606039943675
0.021529263564177
0.020452630562349
0.019367171352455
0.018270908620938
0.017165814985374
0.016054496720603
0.014938749960361
0.013819521383056
0.012697376492995
0.011572909762299
0.010446906131722
0.0093203127376049
0.0081941553398249
0.0070694800828843
0.0059473352612995
0.0048287738219564
0.0037148609920153
0.0026066751509195
0.0015053050129455
0.00041184110181418
-0.00067262845385068
-0.0017470266645668
-0.0028102861690869
-0.0038613645646235
-0.0048992309315683
-0.0059228952354342
-0.0069313724289681
-0.0079237459639847
-0.0088990792590242
-0.0098565558411938
-0.010795271898433
-0.011714553298388
-0.012613477868546
-0.013491598369869
-0.014347847841104
-0.015182193469232
-0.015993124010952
-0.016781442796545
-0.017544468785914
-0.018284727163665
-0.018996401684046
-0.019685013756874
-0.020334615031523
-0.020950044371943
-0.021468830493459
0.028464362982931
0.027374072694487
0.026175967777554
0.024961752989596
0.023770010514975
0.022597426603386
0.021427186560331
0.020247816891305
0.019056951463929
0.017857136520331
0.016651531016059
0.0154421472845
0.014229898238955
0.013015237498686
0.011798677777449
0.010580975566634
0.0093630794186819
0.0081460204234925
0.0069308422700164
0.0057185830226859
0.0045102819667541
0.0033069907161531
0.0021097747690318
0.00091971044224601
-0.00026212460224555
-0.0014346555119272
-0.002596819729446
-0.0037475633992417
-0.0048858600531134
-0.0060106923261634
-0.0071210891566982
-0.0082160773159053
-0.009294762606841
-0.010356213946007
-0.011399645770928
-0.012424145964619
-0.013429089736363
-0.014413514919552
-0.015377065145308
-0.016318561795839
-0.017238157388744
-0.018134068807865
-0.019007499262165
-0.019855127910746
-0.020680348441433
-0.021475781475397
-0.022248659633811
-0.022978558520783
-0.023671774957763
-0.024247732634992
0.030193623687688
0.029006153363499
0.027686949267043
0.026352421513692
0.025049818010255
0.023773471214598
0.022501660239004
0.02122013225359
0.019926230567848
0.0186232466964
0.017314979846702
0.016003660621256
0.014690139115651
0.01337473786257
0.012057886418096
0.010740319725865
0.0094229941664139
0.0081069475267663
0.0067932178611718
0.0054828280933674
0.0041767984577749
0.002876161172496
0.0015819624385109
0.00029525822614657
-0.00098289680694895
-0.0022514537866266
-0.0035093779762226
-0.0047556422447926
-0.0059892502906905
-0.0072092132485823
-0.0084145961486332
-0.0096044550881993
-0.010777940455085
-0.011934145949802
-0.013072343090478
-0.014191630166374
-0.015291466115852
-0.016370863216407
-0.017429604179346
-0.018466400766163
-0.019481664966861
-0.020473312896682
-0.021443073167887
-0.022386883703409
-0.023309236360161
-0.024200907602339
-0.025071257773557
-0.025894574150628
-0.026679048425165
-0.027322723616686
0.032076077123886
0.030784318222339
0.029333448222716
0.027868745805482
0.026446969987983
0.025059248499738
0.023678120415837
0.022286324230716
0.020881073330064
0.019466603492606
0.018047435741451
0.016626006321217
0.015203067860655
0.013778794984348
0.012353538663407
0.010928025539718
0.0095032290085956
0.0080801959006292
0.0066599565971752
0.0052435145240572
0.0038318655881442
0.0024260168892452
0.0010269888710736
-0.00036418849950988
-0.0017464908034063
-0.0031189130483996
-0.0044804626060365
-0.005830153288368
-0.0071670371078461
-0.008490173079867
-0.0097986838459614
-0.011091675471062
-0.01236836875481
-0.013627906372446
-0.01486965191175
-0.016092738039742
-0.017296752834067
-0.018480702852876
-0.019644574889301
-0.020786975901958
-0.02190867689865
-0.023007260979494
-0.02408514747898
-0.02513741500144
-0.02616994950093
-0.027171360184774
-0.028153667867874
-0.029084947024892
-0.029975892247106
-0.030699443834882
0.0341117092859
0.032708859064889
0.031115942118683
0.029511606143732
0.027962831290239
0.02645648805409
0.024958499729841
0.023448444121825
0.02192364295502
0.020389499582425
0.018851325194998
0.017311730295072
0.015771327485358
0.014230132737695
0.012688433678589
0.011146968141179
0.0096067389426969
0.0080688055125561
0.0065341889307546
0.0050038705498843
0.0034788192314939
0.0019600118915511
0.00044843425265487
-0.0010549211855793
-0.0025490545598915
-0.0040330285771186
-0.0055059049087072
-0.006966755105846
-0.0084147008416569
-0.0098488720171817
-0.011268475748905
-0.012672693907346
-0.014060851120937
-0.015432167676197
-0.016786142393622
-0.018121973081345
-0.019439437616096
-0.020737561380125
-0.022016623315145
-0.023275131402945
-0.024514352307128
-0.025731495247606
-0.026929893993063
-0.028103623778657
-0.029260353087944
-0.030386146374939
-0.031496361509278
-0.032551824939738
-0.033566468119596
-0.034383935588308
0.036299757177006
0.034779341583824
0.033034290872181
0.031281408373129
0.029598390616075
0.027966576673931
0.026344388909893
0.024708204117792
0.023055778864737
0.021393924597594
0.019728786862855
0.018063095991135
0.016397279689444
0.014731194407377
0.013065090496988
0.01139974452824
0.0097362036031078
0.0080755438803002
0.0064187775195242
0.0047668637872356
0.0031207448720379
0.0014813691297091
-0.00015031180234412
-0.0017733549249721
-0.0033868592781626
-0.0049898888502265
-0.0065815801275434
-0.0081610956372789
-0.009727654690998
-0.011280480395474
-0.012818894296579
-0.014342185228684
-0.015849822692551
-0.017341139573855
-0.018815825360712
-0.020273179269924
-0.021713246746532
-0.023135102440966
-0.024539434631831
-0.02592465756001
-0.027292720304936
-0.028640402504715
-0.029972260576463
-0.031281178349216
-0.032577125941183
-0.033843149164277
-0.035098823857174
-0.036296525623728
-0.037454556418738
-0.038382550628315
0.038638374519029
0.036994302607182
0.035087485926882
0.033177877542594
0.031354081125428
0.029590391417536
0.027836878124009
0.026066832140723
0.024278869854849
0.022481454974772
0.020681574738433
0.018881999848497
0.017082928039057
0.015284071240099
0.013485684701545
0.011688617437722
0.0098939773897567
0.0081028631086441
0.0063162799534403
0.0045351683409151
0.0027604465619019
0.00099303248435258
-0.00076616375306295
-0.0025162498689063
-0.0042563728932266
-0.005985687954518
-0.0077034197904127
-0.0094088271774613
-0.011101247978614
-0.012780026182981
-0.014444634808718
-0.016094504270007
-0.017729299033748
-0.019348505862995
-0.020952070797331
-0.02253943988496
-0.024111021714077
-0.025665976889226
-0.027205550127597
-0.028728064979855
-0.030236398171566
-0.031726818693423
-0.033205529308036
-0.034663966033784
-0.036115133029087
-0.037538443653217
-0.038958912905186
-0.040318963842018
-0.041642812697318
-0.042700895498782
0.041124373977106
0.039351004034301
0.037273440678315
0.035199879902191
0.033229612778804
0.031328135774282
0.029436407275237
0.027524944498641
0.025593748699477
0.023653165899682
0.021710981373049
0.019769900277039
0.017829854950855
0.015890450067126
0.013952002749121
0.012015475159861
0.010082053517328
0.0081528647833278
0.0062289142921955
0.0043111324348169
0.0024004220161842
0.0004976770456378
-0.0013962309752932
-0.0032804616007431
-0.0051542295439979
-0.0070167876032441
-0.008867468426232
-0.010705645399483
-0.012530800159379
-0.014342426893086
-0.016140191740208
-0.017923707967591
-0.019692889993296
-0.021447430565853
-0.023187609433583
-0.024913079740294
-0.026624719031372
-0.028321831978698
-0.030006383844175
-0.031676625797465
-0.033336652611273
-0.03498212008826
-0.036621420011697
-0.038244180773543
-0.039867417990106
-0.041466100450286
-0.043072314261784
-0.044616708553568
-0.046131571608355
-0.047341771429619
0.043752993042709
0.041845238492657
0.039588844632041
0.037345296582481
0.035223841749883
0.033179203332792
0.031142637200508
0.029082440126212
0.027000614070874
0.02490957301172
0.022817789716452
0.020727777148215
0.018639186541386
0.016551581823384
0.014465417794329
0.01238181374083
0.010302052047108
0.0082272979226011
0.0061585671574303
0.0040967942517527
0.0020428810799643
-2.2908715511952e-06
-0.0020378825694285
-0.0040631078363426
-0.0060772609407406
-0.0080796951175452
-0.010069866353243
-0.012047284921922
-0.014011603698319
-0.015962502576313
-0.017899882057607
-0.019823588849934