/*--------------------------------*- C++ -*----------------------------------*\
| =========                 |                                                 |
| \\      /  F ield         | OpenFOAM: The Open Source CFD Toolbox           |
|  \\    /   O peration     | Version:  2112                                  |
|   \\  /    A nd           | Website:  www.openfoam.com                      |
|    \\/     M anipulation  |                                                 |
\*---------------------------------------------------------------------------*/
FoamFile
{
    version     2.0;
    format      ascii;
    arch        "LSB;label=32;scalar=64";
    class       volVectorField;
    location    "17.3";
    object      U;
}
// * * * * * * * * * * * * * * * * * * * * * * * * * * * * * * * * * * * * * //

dimensions      [0 1 -1 0 0 0 0];

internalField   nonuniform List<vector> 
22000
(
(1.000001091106 -2.6531886348975e-05 0)
(1.0000274699326 -7.9366731323898e-05 0)
(1.0000781711916 -0.00013216734942641 0)
(1.0001543451464 -0.00018486255771463 0)
(1.0002563922821 -0.0002375082801082 0)
(1.0003843233774 -0.00029016836786867 0)
(1.0005380062898 -0.00034280534889302 0)
(1.0007172712075 -0.00039530457923456 0)
(1.000921946283 -0.00044752321194833 0)
(1.0011518757633 -0.00049936754482582 0)
(1.0014068844491 -0.00055076286659245 0)
(1.0016867875299 -0.00060169366796725 0)
(1.0019913487244 -0.00065209013138223 0)
(1.0023203336924 -0.00070195779823521 0)
(1.0026734344781 -0.00075116813990566 0)
(1.0030503850761 -0.00079978644886276 0)
(1.0034508002031 -0.00084758598876951 0)
(1.0038744137717 -0.00089479356130104 0)
(1.0043207361937 -0.00094095564028973 0)
(1.0047895521406 -0.00098665770664493 0)
(1.005280202381 -0.0010309060136484 0)
(1.0057926179748 -0.0010750999806268 0)
(1.0063258276283 -0.0011169942211105 0)
(1.0068800968251 -0.001159863875576 0)
(1.0074538506242 -0.0011985875790044 0)
(1.0080480722953 -0.0012407680371433 0)
(1.0086600106527 -0.0012746787783415 0)
(1.0092921352374 -0.0013178916758419 0)
(1.0099394425941 -0.0013435132517169 0)
(1.0106073993769 -0.0013920267680494 0)
(1.0000005294984 -7.7956716960434e-05 0)
(1.0000267145308 -0.0002333304909686 0)
(1.0000773313208 -0.00038873435531789 0)
(1.000153454512 -0.00054390423344101 0)
(1.0002555386517 -0.00069900043741997 0)
(1.0003836800249 -0.00085422378658562 0)
(1.0005378064276 -0.0010094668753701 0)
(1.0007177874241 -0.0011643829051896 0)
(1.0009234629011 -0.0013185394372372 0)
(1.0011546973162 -0.0014716522424971 0)
(1.0014113155495 -0.0016234997433871 0)
(1.0016931690172 -0.0017740360123739 0)
(1.0020000129362 -0.0019230582725021 0)
(1.00233167715 -0.0020705798484092 0)
(1.0026878131502 -0.0022162255274558 0)
(1.003068270568 -0.0023601787812418 0)
(1.0034725484825 -0.0025017823953688 0)
(1.003900608043 -0.0026416857957999 0)
(1.0043516813187 -0.0027785839632907 0)
(1.0048260244525 -0.0029141560574317 0)
(1.0053223453948 -0.0030455520668762 0)
(1.0058415760249 -0.0031767757421188 0)
(1.00638133819 -0.0033014039049241 0)
(1.006944043187 -0.0034287811038572 0)
(1.007525030836 -0.0035443027635261 0)
(1.0081299102656 -0.0036696007286104 0)
(1.0087492382108 -0.0037713532524447 0)
(1.0093954510311 -0.0038994029041281 0)
(1.0100492590249 -0.0039776087855183 0)
(1.0107374496267 -0.0041204316844046 0)
(1.0000005630363 -0.00012688970688738 0)
(1.0000274422954 -0.00037982135282224 0)
(1.0000792630906 -0.00063288227467449 0)
(1.0001569691474 -0.00088562083737806 0)
(1.0002609439592 -0.0011383539742573 0)
(1.0003913014207 -0.0013914614939882 0)
(1.0005480193035 -0.0016447773541772 0)
(1.0007310252596 -0.0018977177189392 0)
(1.0009401877813 -0.0021495545180863 0)
(1.0011754112248 -0.0023998156259948 0)
(1.001436526319 -0.0026481402751263 0)
(1.0017234426321 -0.0028944662412432 0)
(1.002035906475 -0.0031384674176026 0)
(1.002373851075 -0.0033801797799804 0)
(1.0027368722858 -0.0036189837360319 0)
(1.0031250065034 -0.0038551978385837 0)
(1.0035375801826 -0.0040877269531827 0)
(1.0039749206561 -0.0043176734921972 0)
(1.0044358250736 -0.004542856796043 0)
(1.004921315216 -0.0047661108719285 0)
(1.0054290777269 -0.0049826609049873 0)
(1.0059616936023 -0.0051992395474911 0)
(1.00651444952 -0.0054050706308064 0)
(1.007093366279 -0.0056158407447062 0)
(1.0076885153923 -0.0058070502839501 0)
(1.0083134828963 -0.0060149839160557 0)
(1.0089470540203 -0.0061837803635003 0)
(1.0096193467473 -0.0063969854242058 0)
(1.0102851462653 -0.0065270482831954 0)
(1.0110103612313 -0.0067656810784581 0)
(1.0000005885322 -0.00017418491990178 0)
(1.0000281280396 -0.00052114275975574 0)
(1.0000811555743 -0.00086812806996354 0)
(1.0001605542963 -0.001214582386506 0)
(1.0002666651236 -0.0015611149533006 0)
(1.0003996215016 -0.0019083755317882 0)
(1.0005594460798 -0.0022561657732713 0)
(1.0007461295863 -0.0026036612281141 0)
(1.000959574737 -0.0029498322301672 0)
(1.001199743011 -0.0032940275694271 0)
(1.0014664761289 -0.0036357624803098 0)
(1.0017597669029 -0.0039749847540663 0)
(1.0020793507078 -0.0043112611247021 0)
(1.0024253069954 -0.0046446778967866 0)
(1.0027971567501 -0.0049743732644278 0)
(1.0031952010029 -0.0053008331092655 0)
(1.003618529941 -0.0056225065152785 0)
(1.004067987767 -0.0059410054089519 0)
(1.0045417704998 -0.0062532205622271 0)
(1.0050419752938 -0.0065632532077738 0)
(1.0055648702467 -0.006864265860826 0)
(1.0061153461866 -0.007165948815243 0)
(1.0066854387206 -0.0074528405150352 0)
(1.0072862150853 -0.0077474638281983 0)
(1.0079004067167 -0.0080146687172504 0)
(1.0085527464569 -0.0083064983035383 0)
(1.0092056213665 -0.0085428670012611 0)
(1.0099138514444 -0.008843503194357 0)
(1.0105961366764 -0.0090256886382776 0)
(1.0113729602452 -0.0093639262593074 0)
(1.0000006174198 -0.00021992122363168 0)
(1.0000288142987 -0.00065755607149749 0)
(1.000083035072 -0.0010949161980069 0)
(1.0001640982739 -0.0015313898473708 0)
(1.0002723078357 -0.0019680396863861 0)
(1.0004078323295 -0.0024059094302472 0)
(1.0005707536063 -0.002844809414479 0)
(1.0007611410337 -0.0032836702906179 0)
(1.0009789407003 -0.0037211491723586 0)
(1.0012241888666 -0.0041564232410816 0)
(1.0014967460868 -0.0045889012364615 0)
(1.0017967157676 -0.0050185740332177 0)
(1.0021238261377 -0.0054449212164476 0)
(1.0024783471341 -0.0058681137820689 0)
(1.0028597136347 -0.0062870488259389 0)
(1.0032685667692 -0.0067024195822615 0)
(1.0037037103284 -0.0071121949596573 0)
(1.0041666456177 -0.0075185684786406 0)
(1.0046548280847 -0.0079174333953599 0)
(1.0051717115071 -0.0083143032489644 0)
(1.0057118052226 -0.0087000996416767 0)
(1.0062828990663 -0.0090877671494504 0)
(1.0068729863457 -0.0094567294435339 0)
(1.007499450278 -0.0098369871062248 0)
(1.0081358832756 -0.010181765725469 0)
(1.0088209399317 -0.01056030134923 0)
(1.0094965827201 -0.010866117738201 0)
(1.0102484312698 -0.011258343606759 0)
(1.0109502489281 -0.011494280838887 0)
(1.011790436452 -0.011938397673912 0)
(1.0000006482576 -0.00026406928189725 0)
(1.0000294300022 -0.00078895155727863 0)
(1.0000846883181 -0.0013130563282708 0)
(1.0001671568617 -0.0018357807425945 0)
(1.0002770976896 -0.0023588190707643 0)
(1.0004147291116 -0.0028837447329375 0)
(1.0005802113776 -0.0034104196518285 0)
(1.0007737129674 -0.0039375220972897 0)
(1.0009952361319 -0.0044633808131605 0)
(1.0012449105832 -0.0049870085252726 0)
(1.0015226258329 -0.0055077268833542 0)
(1.0018286234624 -0.0060256074503128 0)
(1.0021626328328 -0.0065400661043743 0)
(1.0025251577716 -0.0070513981967566 0)
(1.0029155438653 -0.007558262433655 0)
(1.003334843062 -0.0080616056146321 0)
(1.0037815380216 -0.0085588912255286 0)
(1.0042579133904 -0.0090529766649856 0)
(1.0047605759805 -0.0095386835377839 0)
(1.0052945816122 -0.01002310127153 0)
(1.0058524062672 -0.010494715698823 0)
(1.0064452425245 -0.010970056802878 0)
(1.0070563917433 -0.011422960882217 0)
(1.0077106200409 -0.011891618303966 0)
(1.0083708943519 -0.012316555236188 0)
(1.0090921082027 -0.012785789387369 0)
(1.0097924608034 -0.013164059125344 0)
(1.01059344479 -0.013653449455227 0)
(1.0113165800652 -0.013945951096421 0)
(1.0122292532193 -0.014503911844698 0)
(1.0000006785446 -0.00030649958625222 0)
(1.000029879787 -0.00091491908651187 0)
(1.000085840844 -0.001521846340009 0)
(1.0001691930906 -0.0021267583905322 0)
(1.0002801539802 -0.0027321755240332 0)
(1.0004190048776 -0.0033403470903209 0)
(1.0005860024345 -0.0039512317145538 0)
(1.0007814341004 -0.0045632462982447 0)
(1.0010053721891 -0.0051743749520412 0)
(1.0012580585076 -0.0057834743757755 0)
(1.0015394236162 -0.0063898017871649 0)
(1.0018498739893 -0.0069935516290445 0)
(1.0021891523112 -0.0075941041474102 0)
(1.0025580373176 -0.0081919234815899 0)
(1.0029557902987 -0.0087854368200401 0)
(1.0033839381744 -0.009375895276389 0)
(1.0038406244566 -0.0099602358506568 0)
(1.0043290262854 -0.010542067180656 0)
(1.0048448285706 -0.011115069955608 0)
(1.0053948927323 -0.011688078400381 0)
(1.0059694613351 -0.012246952687206 0)
(1.0065835344157 -0.012812143019603 0)
(1.0072152325119 -0.013351430114858 0)
(1.0078975502019 -0.013911905812901 0)
(1.0085816902707 -0.014420327269588 0)
(1.0093406018469 -0.014985074274017 0)
(1.0100661522761 -0.015439714898223 0)
(1.0109196669152 -0.016032823916048 0)
(1.0116648088241 -0.016385771852964 0)
(1.0126565508844 -0.017066650849551 0)
(1.0000007064262 -0.00034699876817345 0)
(1.000030075833 -0.001034806483114 0)
(1.0000862356316 -0.001720183043663 0)
(1.0001697024726 -0.0024027614030624 0)
(1.0002806496317 -0.0030860947531769 0)
(1.0004194343904 -0.0037732638856858 0)
(1.0005864259441 -0.0044643729423119 0)
(1.000782048532 -0.0051575692568253 0)
(1.0010064582459 -0.0058504770035753 0)
(1.0012600264449 -0.0065418071549373 0)
(1.0015427380655 -0.0072307786142315 0)
(1.0018551892531 -0.0079177544633981 0)
(1.0021971517177 -0.0086021123452958 0)
(1.0025697163355 -0.0092845331168995 0)
(1.0029720732959 -0.0099632253935608 0)
(1.0034062799462 -0.010639797737993 0)
(1.003870140507 -0.011310648195176 0)
(1.0043678133223 -0.011980223819719 0)
(1.0048940265058 -0.012641009173602 0)
(1.0054576030335 -0.013303744991801 0)
(1.006046433662 -0.013951500849251 0)
(1.0066796226242 -0.014608957369949 0)
(1.0073297972527 -0.015237420223988 0)
(1.0080387785737 -0.01589353125586 0)
(1.0087452525084 -0.016489311142362 0)
(1.0095414951835 -0.017154936653299 0)
(1.0102913033823 -0.017690642099758 0)
(1.01119859184 -0.018394701977274 0)
(1.0119653649981 -0.018813038639651 0)
(1.0130401366173 -0.019626647545657 0)
(1.0000007297824 -0.00038529668991278 0)
(1.0000299426758 -0.0011477991317081 0)
(1.0000856613756 -0.0019066994891911 0)
(1.0001682688846 -0.0026618665647662 0)
(1.0002778914247 -0.0034181004024391 0)
(1.0004149732348 -0.0041794733102672 0)
(1.0005800117116 -0.0049462857343622 0)
(1.0007735848574 -0.005716408038398 0)
(1.0009959471687 -0.0064870910442587 0)
(1.0012476161078 -0.0072569126042511 0)
(1.0015286453697 -0.0080250834284216 0)
(1.0018398421233 -0.0087921836006811 0)
(1.0021810252776 -0.0095576262884569 0)
(1.0025536291948 -0.010322358817169 0)
(1.0029567939363 -0.01108439201691 0)
(1.0033931515079 -0.011845744970442 0)
(1.0038601851385 -0.012602277499574 0)
(1.0043630988161 -0.013359356484035 0)
(1.0048956698409 -0.014108239085731 0)
(1.0054687845915 -0.014861714085276 0)
(1.0060679528889 -0.015599942060568 0)
(1.0067165581636 -0.016352090513308 0)
(1.0073816140098 -0.017072666454205 0)
(1.0081141015216 -0.017828382059792 0)
(1.0088398452406 -0.018515758918174 0)
(1.0096711338507 -0.019287914818234 0)
(1.0104428415751 -0.019910028721466 0)
(1.0114029508719 -0.020732643115908 0)
(1.0121899145413 -0.021222357436543 0)
(1.0133489784467 -0.022178830673503 0)
(1.000000747185 -0.00042109199048318 0)
(1.0000294180366 -0.001252995077572 0)
(1.0000839410341 -0.0020798924947533 0)
(1.0001645427852 -0.002901972422645 0)
(1.0002712972329 -0.0037254962204346 0)
(1.0004047454654 -0.004555686241056 0)
(1.00056552794 -0.0053930893492001 0)
(1.0007543907159 -0.0062352917633942 0)
(1.0009716990408 -0.007079159491294 0)
(1.0012181292553 -0.0079231513961717 0)
(1.0014938186775 -0.00876650366211 0)
(1.0017998036911 -0.0096100634106542 0)
(1.002135971172 -0.010453323268018 0)
(1.0025041226304 -0.011297547243162 0)
(1.0029033755501 -0.012140578709223 0)
(1.0033369667673 -0.012984897572216 0)
(1.0038020950433 -0.013825843774431 0)
(1.0043050465763 -0.014669773997893 0)
(1.0048386959541 -0.015506720418693 0)
(1.0054160353993 -0.016351628370164 0)
(1.0060202567336 -0.017181698847006 0)
(1.00667906957 -0.018030760310034 0)
(1.0073539524515 -0.018846339594629 0)
(1.0081050963318 -0.019705547800826 0)
(1.0088455515719 -0.020488948044139 0)
(1.0097076951759 -0.021373313281472 0)
(1.0104975406973 -0.022087697336335 0)
(1.0115073004267 -0.023036533735491 0)
(1.0123119476689 -0.023604624942901 0)
(1.0135538236633 -0.024714005601483 0)
(1.0000007570427 -0.00045408095916216 0)
(1.00002845312 -0.0013494942742487 0)
(1.0000809356818 -0.0022382709529006 0)
(1.0001582507779 -0.0031210023200119 0)
(1.0002604145439 -0.0040056198691443 0)
(1.0003880724171 -0.0048986484656942 0)
(1.0005420204468 -0.0058009295897164 0)
(1.0007231837337 -0.0067097587516679 0)
(1.0009320486591 -0.0076216082256327 0)
(1.0011694585639 -0.008534832661031 0)
(1.0014356467532 -0.0094487297768798 0)
(1.001731890112 -0.010364463150001 0)
(1.0020581656202 -0.011281654312369 0)
(1.0024166573213 -0.012201933305349 0)
(1.0028064939002 -0.013123017813634 0)
(1.0032315307997 -0.014047893487247 0)
(1.00368873565 -0.01497142029542 0)
(1.0041854824835 -0.015900997508045 0)
(1.0047138327699 -0.016825477467222 0)
(1.0052888638005 -0.017762025117001 0)
(1.0058916057419 -0.018684919050068 0)
(1.0065540064398 -0.019632713274878 0)
(1.0072322903121 -0.02054595828547 0)
(1.0079956242397 -0.021512241528689 0)
(1.0087447995726 -0.02239610422126 0)
(1.0096317423015 -0.02339812835331 0)
(1.0104345892171 -0.024211020481372 0)
(1.0114886262139 -0.025293503993338 0)
(1.012307372424 -0.025947924474192 0)
(1.0136278373698 -0.0272197609081 0)
(1.000000758491 -0.00048398236287327 0)
(1.0000270141896 -0.001436471525252 0)
(1.000076550533 -0.0023804748234484 0)
(1.0001492093783 -0.0033170684358625 0)
(1.0002449422972 -0.0042560516448596 0)
(1.0003645038609 -0.005205393906479 0)
(1.000508854892 -0.0061662760321955 0)
(1.0006791058207 -0.0071356966546839 0)
(1.0008758713362 -0.0081097283549045 0)
(1.0011001646738 -0.0090866367707459 0)
(1.0013523252667 -0.010065819274182 0)
(1.0016338740361 -0.011048802723983 0)
(1.0019448982179 -0.012035391363668 0)
(1.0022879683343 -0.01302762699029 0)
(1.0026622629742 -0.01402315586156 0)
(1.0030722527004 -0.015025506549867 0)
(1.0035147425483 -0.016029124058905 0)
(1.0039981670152 -0.017042480411205 0)
(1.0045139026553 -0.018053343735035 0)
(1.0050790266816 -0.019081104802462 0)
(1.0056726523873 -0.02009726246807 0)
(1.0063307461648 -0.021145027091216 0)
(1.007004752984 -0.022158200793992 0)
(1.0077722992691 -0.023234620771624 0)
(1.0085228526025 -0.024223221450185 0)
(1.0094267544477 -0.025347872828183 0)
(1.010236129311 -0.026265735177384 0)
(1.0113269169528 -0.027488746365603 0)
(1.0121550820338 -0.028238321733873 0)
(1.0135472097442 -0.029681275906243 0)
(1.0000007503382 -0.00051055594531002 0)
(1.0000250848497 -0.0015132303461816 0)
(1.0000707411032 -0.0025053647710286 0)
(1.000137333374 -0.0034885970175807 0)
(1.0002247425362 -0.0044747755006101 0)
(1.0003338336985 -0.0054734421906914 0)
(1.0004657373764 -0.0064861569751862 0)
(1.0006217501293 -0.0075096154958371 0)
(1.0008026180503 -0.0085394874749679 0)
(1.0010095209597 -0.0095739641985088 0)
(1.0012429112431 -0.010612582038346 0)
(1.0015045491882 -0.011657274062467 0)
(1.0017946504319 -0.012708084889573 0)
(1.0021161626489 -0.013767507807784 0)
(1.0024683538796 -0.014833183919041 0)
(1.0028562874116 -0.015909211071511 0)
(1.0032766870739 -0.01698971205326 0)
(1.0037389875461 -0.018084234619079 0)
(1.0042340424101 -0.01917961493979 0)
(1.0047807802792 -0.020297409193233 0)
(1.0053567229342 -0.021406598963827 0)
(1.0060015082562 -0.02255482772013 0)
(1.0066624547554 -0.02366963350554 0)
(1.0074248733881 -0.024858528821938 0)
(1.0081682221091 -0.025955804771889 0)
(1.0090795736027 -0.027207326738335 0)
(1.0098877227777 -0.028236681535657 0)
(1.0110056764447 -0.029606262027634 0)
(1.0118374601404 -0.030460583911846 0)
(1.0132917206121 -0.03208205371268 0)
(1.0000007324706 -0.0005336161079164 0)
(1.0000226653778 -0.0015792433656753 0)
(1.0000635111504 -0.0026120882974589 0)
(1.0001226350805 -0.0036344202658961 0)
(1.0001998397829 -0.004660297288752 0)
(1.0002960990141 -0.0057009440961937 0)
(1.0004127135297 -0.006758333210325 0)
(1.0005511608291 -0.0078288508453887 0)
(1.0007123168568 -0.008907763213268 0)
(1.0008975180376 -0.0099932004008368 0)
(1.0011073322316 -0.011084877178989 0)
(1.0013437454783 -0.012185170023678 0)
(1.0016071164105 -0.013294424558196 0)
(1.0019007477624 -0.014415617818195 0)
(1.0022240358055 -0.015546463688892 0)
(1.0025825932477 -0.016691641701464 0)
(1.0029731520487 -0.017845073284523 0)
(1.0034060550316 -0.019017353920856 0)
(1.0038718222784 -0.020194600758605 0)
(1.0043910264611 -0.021400401023476 0)
(1.0049399898724 -0.022601611142405 0)
(1.0055615614321 -0.023849915353813 0)
(1.0061997378709 -0.025067351476439 0)
(1.0069465056809 -0.026370152578476 0)
(1.0076729625068 -0.027579530477796 0)
(1.0085807461156 -0.028961209643316 0)
(1.0093787088309 -0.030108463940317 0)
(1.0105123222602 -0.031629532547365 0)
(1.0113407884062 -0.032598822562495 0)
(1.0128451928026 -0.034404583265096 0)
(1.0000007043081 -0.00055304091340986 0)
(1.000019772717 -0.0016341775806904 0)
(1.0000549123185 -0.0027001210946327 0)
(1.0001052193803 -0.0037538333013651 0)
(1.0001704119843 -0.0048117179177124 0)
(1.0002515668016 -0.0058867725167891 0)
(1.0003501502871 -0.0069814083420437 0)
(1.0004678098009 -0.0080916950502174 0)
(1.0006055446373 -0.0092124968532355 0)
(1.0007648311031 -0.010341893431786 0)
(1.0009463502158 -0.011479816272151 0)
(1.001152290974 -0.012629115098164 0)
(1.0013831647635 -0.013790498632815 0)
(1.0016425941601 -0.014967450510164 0)
(1.0019301398751 -0.01615784628855 0)
(1.0022519014967 -0.017366943795274 0)
(1.0026047110841 -0.018588611142923 0)
(1.0029996967128 -0.019834429001199 0)
(1.0034272535999 -0.021090069977737 0)
(1.0039093393318 -0.022380939912492 0)
(1.0044215200838 -0.023672296446029 0)
(1.005009297045 -0.025019294614832 0)
(1.0056142699172 -0.026339528267844 0)
(1.0063339013749 -0.027756596671821 0)
(1.0070328402989 -0.029080828713594 0)
(1.0079247241678 -0.03059478144676 0)
(1.0087024337098 -0.031866041250958 0)
(1.009838461212 -0.033542125569811 0)
(1.0106555276141 -0.034637068664799 0)
(1.0121958252441 -0.036630936295187 0)
(1.0000006664573 -0.0005687760274301 0)
(1.0000164380813 -0.0016779061147644 0)
(1.0000450367836 -0.00276928584349 0)
(1.0000852728965 -0.0038466192227609 0)
(1.0001367728329 -0.0049287650159319 0)
(1.0002007077607 -0.0060305621616317 0)
(1.000278700743 -0.0071548788874353 0)
(1.0003725516119 -0.0082974601413108 0)
(1.0004833714292 -0.0094527710139074 0)
(1.0006127532755 -0.010618848437563 0)
(1.0007614839685 -0.011795876421752 0)
(1.0009319240979 -0.012987199465034 0)
(1.0011247418117 -0.014193951054312 0)
(1.001343831838 -0.015420133890603 0)
(1.0015889504613 -0.01666388240856 0)
(1.0018666038664 -0.017931013032969 0)
(1.0021738152692 -0.019215513058904 0)
(1.0025223475187 -0.02052985071727 0)
(1.0029026878613 -0.02185958564139 0)
(1.003337876422 -0.023231651797153 0)
(1.0038031990773 -0.024610365511911 0)
(1.0043461742392 -0.026053605796555 0)
(1.0049070119433 -0.02747587028247 0)
(1.0055873020987 -0.02900636879851 0)
(1.006247352376 -0.030447382877464 0)
(1.0071099313621 -0.032094370327612 0)
(1.0078563425562 -0.033495250915448 0)
(1.0089800177905 -0.035328238214414 0)
(1.0097764718657 -0.036559781089709 0)
(1.0113363786411 -0.03874329940841 0)
(1.0000006186572 -0.00058083586525373 0)
(1.0000127053215 -0.0017105058814653 0)
(1.0000340132057 -0.0028197461274798 0)
(1.0000630520415 -0.0039130414690568 0)
(1.0000993507101 -0.0050117860071454 0)
(1.0001441637595 -0.0061327045868736 0)
(1.0001992574529 -0.0072791318521704 0)
(1.000266562002 -0.0084464796041105 0)
(1.0003472836308 -0.0096288179824993 0)
(1.000443103195 -0.010824145542833 0)
(1.0005549003987 -0.01203293026818 0)
(1.0006851683679 -0.013259024187208 0)
(1.0008347294686 -0.014504043990682 0)
(1.0010076922763 -0.01577251390437 0)
(1.0012040325368 -0.017062928370256 0)
(1.0014305677695 -0.018381628151361 0)
(1.001684597366 -0.01972290972414 0)
(1.0019783471016 -0.021100001250281 0)
(1.0023026116461 -0.022498726871172 0)
(1.0026811767599 -0.023947188632583 0)
(1.0030895365363 -0.02540953276328 0)
(1.0035765355884 -0.026945454809705 0)
(1.0040820466337 -0.028467972307498 0)
(1.0047103389904 -0.03010977395245 0)
(1.0053196033219 -0.031668542212581 0)
(1.0061386645328 -0.033447827910168 0)
(1.0068419281161 -0.034983273473119 0)
(1.0079372336887 -0.036973203367313 0)
(1.00870277553 -0.03835231496175 0)
(1.0102642351376 -0.040724476337428 0)
(1.0000005637181 -0.00058929664363565 0)
(1.0000086244781 -0.0017322523784694 0)
(1.0000219968985 -0.0028519865264649 0)
(1.0000388697249 -0.0039538072054965 0)
(1.0000586667549 -0.0050616972313497 0)
(1.0000827139777 -0.0061942883615191 0)
(1.0001129034888 -0.0073553813423101 0)
(1.0001512697632 -0.0085400444990189 0)
(1.0001990943451 -0.0097419568375312 0)
(1.0002581132765 -0.010959080037241 0)
(1.0003292805719 -0.012192191308793 0)
(1.0004151765914 -0.013445655296658 0)
(1.0005167672156 -0.014721622862906 0)
(1.0006383088792 -0.016025135295832 0)
(1.000780010438 -0.017355144115831 0)
(1.0009488954789 -0.018718473286459 0)
(1.0011426121018 -0.020109920549671 0)
(1.0013736640204 -0.021543332586354 0)
(1.0016333557601 -0.023005193836409 0)
(1.0019458626432 -0.024524376900624 0)
(1.0022873646747 -0.026065694055227 0)
(1.0027073104206 -0.027689643969863 0)
(1.0031462924171 -0.02930957149564 0)
(1.0037097495855 -0.031059220576559 0)
(1.0042560360836 -0.03273563393069 0)
(1.0050168402673 -0.034644889867903 0)
(1.0056645093152 -0.036319006651249 0)
(1.0067144944233 -0.03846394327454 0)
(1.0074378596524 -0.040001386996705 0)
(1.0089813497187 -0.042558394032764 0)
(1.0000004986341 -0.00059429674158944 0)
(1.0000042647605 -0.0017435682314408 0)
(1.0000091618543 -0.0028667792226039 0)
(1.0000130642825 -0.003970046689429 0)
(1.0000152910055 -0.0050799574561926 0)
(1.0000172181689 -0.0062170569137223 0)
(1.0000208415585 -0.0073856087322728 0)
(1.0000282708532 -0.0085803291262421 0)
(1.0000408386521 -0.0097945082411196 0)
(1.0000603020584 -0.011026069216975 0)
(1.0000876662542 -0.012276116047554 0)
(1.0001255512381 -0.013549525986103 0)
(1.0001750456446 -0.014849021384056 0)
(1.0002404848098 -0.016180154156839 0)
(1.000322308115 -0.017542412496064 0)
(1.0004276395781 -0.018943071775462 0)
(1.0005545242997 -0.020377596556593 0)
(1.0007155632615 -0.021860335231137 0)
(1.0009027373172 -0.023378786052605 0)
(1.0011402654238 -0.024962239973169 0)
(1.0014054451412 -0.026576958362978 0)
(1.0017476186236 -0.02828328093762 0)
(1.0021091084665 -0.029996665118277 0)
(1.0025950037405 -0.03184945013754 0)
(1.0030660799338 -0.033642174786273 0)
(1.0037536135558 -0.035677463884605 0)
(1.0043328539143 -0.037493299146131 0)
(1.0053199261934 -0.039789246388766 0)
(1.0059891129123 -0.041495463148229 0)
(1.0074940828962 -0.044230706066328 0)
(1.0000004291967 -0.00059601249226389 0)
(0.9999996721576 -0.0017450567348878 0)
(0.99999567976587 -0.0028651387255595 0)
(0.99998599710434 -0.0039632075877282 0)
(0.99996982831556 -0.0050684469716266 0)
(0.99994858484663 -0.006203288525471 0)
(0.99992434307738 -0.0073724467227538 0)
(0.99989925770995 -0.0085702781813622 0)
(0.99987468547296 -0.0097896838472617 0)
(0.999852366148 -0.011028540353517 0)
(0.99983332656862 -0.012288287619326 0)
(0.99982018111875 -0.013574313547066 0)
(0.99981411245859 -0.014889935374001 0)
(0.99981946926421 -0.016241213615922 0)
(0.99983689512445 -0.017628222632219 0)
(0.99987352115154 -0.019058684638903 0)
(0.99992779444733 -0.02052883013083 0)
(1.0000122667552 -0.022053473422437 0)
(1.0001196816755 -0.023621334880728 0)
(1.0002740264624 -0.025261971192636 0)
(1.0004540169513 -0.026943581295969 0)
(1.0007083024547 -0.028725800664563 0)
(1.0009817751113 -0.03052744802542 0)
(1.0013778000971 -0.03247769674134 0)
(1.0017616915062 -0.03438391273565 0)
(1.0023609595582 -0.036540031093551 0)
(1.0028588613371 -0.038499024181747 0)
(1.0037647459494 -0.040939997961198 0)
(1.0043672984156 -0.042824537205091 0)
(1.0058127357012 -0.045728724601963 0)
(1.0000003536349 -0.00059465766732537 0)
(0.99999490144171 -0.0017373670630569 0)
(0.99998170392043 -0.0028482203411104 0)
(0.99995799596234 -0.0039349762443826 0)
(0.99992286162152 -0.0050293671299355 0)
(0.99987770935077 -0.0061556652394924 0)
(0.99982466616061 -0.0073190233242698 0)
(0.99976590995815 -0.0085134362925158 0)
(0.99970280588175 -0.0097314191745595 0)
(0.99963703246269 -0.010970787002181 0)
(0.99956959994838 -0.012233312551463 0)
(0.99950306380103 -0.013524872010088 0)
(0.99943867086054 -0.014849388198748 0)
(0.99938071833237 -0.016213427200785 0)
(0.99933001547318 -0.017617680137791 0)
(0.99929361903523 -0.019070337522554 0)
(0.99927034224614 -0.020568419933064 0)
(0.99927258799958 -0.02212727985453 0)
(0.99929383597464 -0.023736836608359 0)
(0.9993576971964 -0.025427111615734 0)
(0.99944435317686 -0.027168112041881 0)
(0.9996014740954 -0.02901918840853 0)
(0.99977690579749 -0.030902287996985 0)
(1.0000714677258 -0.032943928839528 0)
(1.0003565937881 -0.034958484863821 0)
(1.0008531167859 -0.037230259510221 0)
(1.0012573591427 -0.039330836262555 0)
(1.0020628624212 -0.041909693387287 0)
(1.0025869078699 -0.043979645071043 0)
(1.003949937217 -0.047038992606657 0)
(1.0000002722492 -0.000590474397271 0)
(0.99998998847603 -0.0017212471863545 0)
(0.99996735665416 -0.0028172825215311 0)
(0.99992934494219 -0.0038871188161218 0)
(0.99987491294298 -0.0049649957759241 0)
(0.99980541543501 -0.0060769717303146 0)
(0.99972298816272 -0.0072286155178932 0)
(0.99962980496786 -0.0084135440757499 0)
(0.99952723884604 -0.0096238948463918 0)
(0.99941686390851 -0.010857420599377 0)
(0.99929965947075 -0.012116238051663 0)
(0.99917804539591 -0.013406653005287 0)
(0.99905331294673 -0.014733197078702 0)
(0.9989295956563 -0.016102894447716 0)
(0.9988078723317 -0.01751710166124 0)
(0.9986949860957 -0.018984451030132 0)
(0.99859014979586 -0.020502789433077 0)
(0.99850544051494 -0.022088068146716 0)
(0.99843510890035 -0.023731283647088 0)
(0.99840219137351 -0.025463338239945 0)
(0.99838832266086 -0.027255327706964 0)
(0.99844004370298 -0.029167850150688 0)
(0.9985080658681 -0.03112354651548 0)
(0.99869059455106 -0.033250679365553 0)
(0.99886542180108 -0.035364264486625 0)
(0.99924619657124 -0.037749041082029 0)
(0.99954453647647 -0.0399822709026 0)
(1.0002330335268 -0.042698415043733 0)
(1.0006664636722 -0.044947363332084 0)
(1.0019217881741 -0.048149204487608 0)
(1.0000001837095 -0.00058376796631937 0)
(0.99998502138176 -0.0016976429493607 0)
(0.9999528797231 -0.0027738828600223 0)
(0.99990047513984 -0.0038216900084256 0)
(0.99982661476448 -0.0048777786161036 0)
(0.99973257526707 -0.005969992323743 0)
(0.99962048765029 -0.0071043599904887 0)
(0.99949249272441 -0.0082740294588509 0)
(0.99934994455698 -0.0094707800096965 0)
(0.99919424290346 -0.010692321167534 0)
(0.99902638111994 -0.011941137140216 0)
(0.99884856161095 -0.013223883923142 0)
(0.99866215457859 -0.014545755393843 0)
(0.99847091655743 -0.015914123339535 0)
(0.99827613386135 -0.017331152113508 0)
(0.99808408472428 -0.01880572080277 0)
(0.99789472863315 -0.020336746520281 0)
(0.9977191704361 -0.021940491054176 0)
(0.9975531419249 -0.023609329478355 0)
(0.99741796415388 -0.025374901475922 0)
(0.99729799860793 -0.027209234912571 0)
(0.99723681160635 -0.029175343847613 0)
(0.99718996123316 -0.031193663629302 0)
(0.99725037999397 -0.033400936403757 0)
(0.99730488827845 -0.035599810889745 0)
(0.99755684803469 -0.038100442530811 0)
(0.99773817255614 -0.040444477440529 0)
(0.99829571809209 -0.043320771279062 0)
(0.9986340884622 -0.045712803446596 0)
(0.99975340366007 -0.049086747081794 0)
(1.0000000754047 -0.00057501296255064 0)
(0.99998010724786 -0.0016679940286549 0)
(0.99993867731954 -0.0027203585998689 0)
(0.99987216679796 -0.0037418331281689 0)
(0.99977904092559 -0.0047714349703435 0)
(0.99966043642407 -0.005838705753436 0)
(0.99951862486202 -0.0069504150334674 0)
(0.99935576016511 -0.0080989351129124 0)
(0.99917304262915 -0.0092757644340856 0)
(0.99897164373686 -0.010478649457421 0)
(0.99875265105156 -0.011710456206467 0)
(0.99851794166402 -0.012978137266085 0)
(0.99826902351415 -0.014287662330064 0)
(0.99800902886592 -0.015646663059384 0)
(0.99773982247602 -0.017058392239506 0)
(0.99746658371301 -0.018531717546606 0)
(0.99719074730348 -0.020067261768362 0)
(0.99692114534119 -0.021680875922788 0)
(0.99665681655409 -0.023367632489065 0)
(0.99641433006435 -0.025158309889144 0)
(0.99618513392468 -0.027028331535701 0)
(0.99600305943215 -0.029040638015824 0)
(0.99583814877746 -0.031116105120859 0)
(0.99576403932621 -0.033400129937313 0)
(0.9956952282793 -0.035676392859265 0)
(0.99579898571112 -0.038304398871991 0)
(0.9958588346628 -0.040731384236144 0)
(0.99625847857369 -0.043836718517071 0)
(0.99652020081684 -0.04627848375033 0)
(0.99747076962592 -0.05007306634685 0)
(0.99999993210892 -0.00056536284460074 0)
(0.99997498690163 -0.0016358923560656 0)
(0.99992455144116 -0.0026630606677913 0)
(0.99984444659401 -0.0036568885992209 0)
(0.99973261599029 -0.0046586758681388 0)
(0.99958970480996 -0.0056996226924562 0)
(0.99941846081706 -0.0067874415659145 0)
(0.99922125593655 -0.0079133468239996 0)
(0.99899867241331 -0.0090684255278235 0)
(0.99875171752381 -0.010250106365311 0)
(0.99848167297672 -0.011461727856249 0)
(0.9981900362651 -0.012710832220079 0)
(0.99787838547352 -0.01400450332534 0)
(0.99754913008535 -0.015350712437045 0)
(0.9972047393056 -0.01675415567827 0)
(0.99684903753092 -0.018223545209324 0)