/*--------------------------------*- C++ -*----------------------------------*\
| =========                 |                                                 |
| \\      /  F ield         | OpenFOAM: The Open Source CFD Toolbox           |
|  \\    /   O peration     | Version:  2112                                  |
|   \\  /    A nd           | Website:  www.openfoam.com                      |
|    \\/     M anipulation  |                                                 |
\*---------------------------------------------------------------------------*/
FoamFile
{
    version     2.0;
    format      ascii;
    arch        "LSB;label=32;scalar=64";
    class       volScalarField;
    location    "11.6";
    object      p;
}
// * * * * * * * * * * * * * * * * * * * * * * * * * * * * * * * * * * * * * //

dimensions      [0 2 -2 0 0 0 0];

internalField   nonuniform List<scalar> 
22000
(
0.010969586665941
0.01094875934937
0.010905752829848
0.010839418989381
0.010749295088131
0.010635449011758
0.010498173009074
0.010337784621758
0.010154552406441
0.0099487032030696
0.0097204592014061
0.0094700729072811
0.0091978370099703
0.0089040859440845
0.0085891843723498
0.008253533145642
0.0078975548634255
0.0075217147698322
0.007126490889659
0.0067124216554805
0.0062800372039949
0.0058299636602124
0.0053627675271893
0.0048791886231971
0.0043797915871112
0.0038654884910217
0.0033367498688094
0.0027947910824508
0.0022397631474102
0.0016734254662459
0.011360747524158
0.011338647842271
0.01129396278776
0.011225667294576
0.011133271262776
0.011016769173057
0.010876395240891
0.010712437482671
0.010525153072941
0.01031476446977
0.010081489005588
0.0098255727655007
0.0095472990221329
0.0092469936932788
0.008925011085498
0.0085817463999725
0.0082176127779587
0.0078330753285493
0.0074286018979989
0.0070047394098859
0.0065620029285443
0.0061010417887181
0.0056223941756684
0.0051268496038632
0.0046149096691536
0.0040875900436665
0.0035451988516886
0.0029891758274638
0.0024192318439848
0.0018374949392044
0.012079616212024
0.012056517636416
0.012009910008943
0.011938823324084
0.011842799463419
0.011721832208057
0.011576138643633
0.011405985852539
0.011211611832895
0.010993223817077
0.010751024486416
0.010485245674624
0.010196153557313
0.0098840593960401
0.00954929944879
0.0091922580247676
0.0088133298393741
0.0084129772501192
0.0079916471921023
0.007549899429239
0.0070882196061767
0.0066072984527368
0.006107621857843
0.0055900762697063
0.0050550511477659
0.0045037806729778
0.0039362876606846
0.0033545149422605
0.0027573749644459
0.002147868054277
0.013082541164075
0.013058305191168
0.013009412434423
0.012934863487976
0.012834191100239
0.012707387106231
0.012554663298099
0.01237627273756
0.012172431521478
0.01194332284916
0.01168912342656
0.011410040100235
0.011106310813362
0.010778222175708
0.010426080197086
0.010050248481071
0.0096510893477455
0.0092290551303637
0.0087845559457067
0.0083181633229457
0.0078303131241671
0.0073217491058755
0.0067928738980673
0.0062447061999553
0.0056774632363397
0.0050926828408947
0.0044899542647001
0.0038719171067639
0.0032362809819177
0.0025872526868993
0.014332202927553
0.01430665484332
0.014255117970511
0.014176549142834
0.01407045704602
0.013936820449845
0.013775839005516
0.013587745338197
0.013372724268596
0.013130922787585
0.012862477111062
0.012567554034691
0.012246346692266
0.011899101071612
0.011526074557178
0.011127593977526
0.010703968748807
0.010255626957925
0.0097829185251978
0.0092864179802798
0.0087664827502959
0.0082239120993818
0.0076589845509628
0.0070728771515444
0.0064655654724573
0.0058389683871001
0.0051920921848829
0.0045284786345638
0.0038442686130989
0.0031452743075694
0.01579598797642
0.015769024559261
0.015714634918511
0.015631728693885
0.015519783859637
0.015378756184082
0.015208821468359
0.01501017867157
0.014782966320759
0.014527278968762
0.014243194234982
0.013930819687551
0.013590282145603
0.013221765426185
0.012825453798309
0.012401614730172
0.011950477232807
0.011472423602903
0.010967712372195
0.010436904299385
0.0098802411460379
0.009298572241134
0.0086920034401973
0.0080618878677876
0.00740788291349
0.0067323619031533
0.006033595476142
0.005316229031879
0.0045744630701428
0.0038160881345814
0.017444560827425
0.017416165899951
0.017358888752756
0.017271589873257
0.017153710910347
0.01700517448172
0.016826119163151
0.016616694425474
0.016376974441912
0.016106981830698
0.015806713977479
0.015476196118703
0.01511546274909
0.014724608827371
0.014303715192573
0.013852960975333
0.013372460233347
0.012862520411956
0.012323269266914
0.011755228379066
0.011158477632086
0.010533901144314
0.0098813731032619
0.0092024313445255
0.008496328717577
0.0077659535858425
0.0070086751797876
0.0062304280825529
0.0054230828726486
0.004596748081503
0.019250736769563
0.019220979792484
0.019160952178261
0.019069465737116
0.018945920612856
0.018790195306377
0.018602376410849
0.018382546337763
0.018130694763724
0.017846750407693
0.017530605890434
0.017182177616434
0.016801377753751
0.016388181063323
0.015942529290197
0.015464478177642
0.014953985461161
0.014411247049786
0.013836212147916
0.013229328518497
0.01259045779569
0.011920492999834
0.01121900706474
0.010487717223955
0.009725372562305
0.0089354239896684
0.0081141616122873
0.0072689765124005
0.006389009319458
0.0054869885398845
0.021188777234007
0.021157810233254
0.021095335836285
0.021000119646135
0.02087151558212
0.020709346504442
0.020513631223976
0.020284366428898
0.020021436001257
0.01972465135545
0.019393773951228
0.019028582437024
0.018628833654209
0.018194347124493
0.017724885475711
0.017220340800554
0.016680467214932
0.016105305359205
0.015494570378801
0.014848592211787
0.014166948374572
0.01345050248728
0.012698444217966
0.011912651371566
0.011091258132787
0.010238306658689
0.0093488195458181
0.0084317906123766
0.0074732236212466
0.0064887154974978
0.023234019236254
0.023202071414475
0.023137609629961
0.023039358006682
0.022906620044939
0.022739151161795
0.022536886353916
0.022299717847836
0.022027402458818
0.021719610689304
0.021375945927775
0.020996019050093
0.020579397047881
0.020125706825323
0.019634489079694
0.01910542799821
0.018538022449913
0.01793210786096
0.017287103790321
0.016603169406408
0.015879524259943
0.015116952467011
0.014314169012273
0.013473176112017
0.012591367428773
0.01167338486039
0.010712782770344
0.0097202665955612
0.0086783038955167
0.0076055286204463
0.025362742304868
0.025330111919065
0.025264262161299
0.025163881300356
0.025028218654196
0.024856951272241
0.024649915436074
0.024406881426681
0.024127459093688
0.023811155515659
0.02345739010196
0.023065576340785
0.022635057199939
0.022165228845929
0.021655366614093
0.021104899913253
0.020513018924817
0.019879298384121
0.01920279782039
0.018483442998369
0.017720018350616
0.016913163854657
0.016061023700703
0.015165671586337
0.014223629866105
0.013240118123119
0.012207014188835
0.011136776611852
0.010007944382572
0.0088422643540596
0.027552199507509
0.027519244067549
0.027452725047815
0.027351300682269
0.027214162798625
0.027040900667067
0.026831239640707
0.026584813480146
0.026301068077739
0.025979327039504
0.025618802555928
0.025218683080459
0.024778055891028
0.024296049196886
0.023771631722059
0.023203929818282
0.022591773555377
0.021934415444364
0.021230493625171
0.020479623376586
0.019680083450644
0.01883227935511
0.017933700736906
0.016986408310959
0.015985933447943
0.014938037347792
0.013832752523664
0.012684196367012
0.011466902663627
0.010204558276144
0.029780756338048
0.029747875778253
0.02968149979261
0.029580258732196
0.029443283004258
0.02927006748832
0.029060218059705
0.028813221186259
0.028528346013927
0.028204716737718
0.027841319506355
0.027437093997639
0.026990844695068
0.026501397674079
0.025967378526194
0.025387563025708
0.024760375054002
0.024084679220715
0.023358637878581
0.022581465800947
0.021750874752931
0.0208669191616
0.019926360758658
0.018931108944565
0.01787563620971
0.016766000656333
0.015590639697431
0.014364367856072
0.013059717546622
0.011700066924981
0.032028098204445
0.031995720978759
0.031930355289103
0.031830612131015
0.031695560180923
0.031524595995775
0.031317200404499
0.031072705367754
0.030790194558593
0.030468582075189
0.030106614790736
0.029702966169757
0.029256136643774
0.028764622733142
0.028226675316085
0.027640679356299
0.027004608280578
0.026316882256293
0.025575128772838
0.024778082627835
0.023922820720433
0.023008920447602
0.02203237903468
0.02099470724044
0.019889407676229
0.018722385012765
0.017480645331067
0.016179510780141
0.014788684392832
0.01333282531051
0.034275419552708
0.0342439869814
0.034180522325686
0.034083631156814
0.03395232514128
0.033785902340647
0.033583716083138
0.033344940875504
0.033068471785154
0.032753008160499
0.032397050226363
0.031998995082577
0.031557025122826
0.03106928900967
0.030533638403676
0.029948037469562
0.029309969976898
0.028617366485316
0.027867260378808
0.027057843017808
0.026185470535421
0.025249162363723
0.024244025801435
0.023171091691196
0.022022690465704
0.020804555706687
0.019501883789772
0.018130669201705
0.016657109733444
0.015106953994008
0.036505598669569
0.036475549804262
0.036414872171257
0.036322183870177
0.036196448624919
0.036036868743919
0.035842670856989
0.03561287359753
0.035346186080715
0.035041095556
0.034695856449498
0.034308587419821
0.033877146990078
0.033399326980207
0.032872565580505
0.032294386757552
0.031661756295211
0.030972080207985
0.030221748905955
0.029408354469672
0.028527455765573
0.027577433366614
0.026552394574762
0.025452787374874
0.024269613536433
0.023008331650986
0.021652064227124
0.020217376269629
0.018666427290325
0.017025655012495
0.03870334702695
0.0386751050133
0.038618070880768
0.038530894366683
0.038412502483783
0.038262008134514
0.038078516016835
0.03786089527902
0.037607677713185
0.037317147800896
0.036987322702561
0.036616049809624
0.03620086839116
0.035739214657929
0.0352281098985
0.034664630515009
0.034045208883516
0.03336670472271
0.032624830048717
0.031816535034838
0.030936516165356
0.029982445059817
0.02894732035482
0.027830908451258
0.026622718586211
0.025327824344735
0.023927031779854
0.022437353105375
0.020816391592368
0.019090752526497
0.040855311995444
0.0408292728452
0.040776684327002
0.040696248960142
0.040586871190607
0.040447583607002
0.040277377452991
0.040074983159238
0.039838769013077
0.039566832261822
0.039256969057284
0.038906771210262
0.038513473549632
0.038074169442162
0.037585472793655
0.037044017250276
0.036445700676343
0.035786829248752
0.035062417247614
0.03426874662327
0.033399602640682
0.032451896693544
0.03141742076693
0.030295171287522
0.029072982956552
0.027755422855537
0.026320721508852
0.024786246509217
0.023104583837137
0.021301956101953
0.042950119824031
0.042926643522623
0.042879230736794
0.042806656772883
0.042707818600034
0.042581681984893
0.042427138476941
0.042242794881789
0.042026873975962
0.041777305549157
0.041491687737479
0.041167379999182
0.040801337910449
0.040390334585564
0.039930600048619
0.039418342506306
0.038848941241307
0.038218154526899
0.037520299925163
0.036750979188218
0.03590303979138
0.034972601065263
0.033950177364982
0.032833941322246
0.031609885032684
0.030281928926
0.028825358118334
0.027257726668437
0.025526050258236
0.02365637507933
0.044978358365674
0.044957765831613
0.044916175859806
0.044852455686243
0.04476551112194
0.04465425534561
0.04451749655183
0.044353737287476
0.044161078788728
0.043937308412615
0.043679856092674
0.043385877378284
0.04305208381562
0.04267495773964
0.042250383828541
0.041774169721789
0.04124121551568
0.040646744274718
0.039984409357348
0.039249122515122
0.038432806542627
0.037530751951105
0.036532169703657
0.035434377911922
0.034221446489705
0.032896631100054
0.03143190913859
0.029844511180328
0.02807499877493
0.026148597172742
0.046932500685224
0.046915074119187
0.046879868757091
0.046825856003476
0.046751973588775
0.046657103453744
0.046539984685044
0.046399028649197
0.046232238668175
0.046037289972516
0.04581148413263
0.045551807783611
0.045254776832977
0.044916617568571
0.044532926006158
0.044099133548824
0.043609731042966
0.04305941159379
0.042441252973761
0.041749443300027
0.040975083393338
0.04011253812434
0.039149796763257
0.038083170093461
0.036894855530286
0.035587489890736
0.034129931240804
0.032538934780865
0.030747351745113
0.028775532841313
0.048806786808155
0.04879274917463
0.048764392428363
0.048720793787699
0.048660949138835
0.048583732614939
0.048487831363391
0.048371580276646
0.048232906893438
0.048069402436114
0.04787827769769
0.047656381540432
0.047400091382111
0.047105416290603
0.046767745720082
0.046382158637477
0.045942848499447
0.045443953358521
0.044878146680794
0.044238779536712
0.043516423214201
0.042704233938474
0.04178943707357
0.040766726209254
0.039616918525272
0.038341170179381
0.036905814071938
0.035328601482424
0.033534134045989
0.0315368737725
0.050597175578683
0.050586564530019
0.050565276719681
0.050532559857345
0.050487505431339
0.050428949946356
0.050355500282133
0.050265423759817
0.050156613583325
0.050026635492876
0.04987265758157
0.049691419776413
0.049479202628299
0.049231811694014
0.048944498177994
0.048611999869933
0.04822835400813
0.047787089089821
0.047280724379704
0.04670152102506
0.046040046567246
0.045287570283154
0.044431743476648
0.043464033672663
0.042366206823503
0.041134081931169
0.039734270695811
0.038179890198459
0.036394638528887
0.03439768375917
0.052301579079788
0.052294143340569
0.052279538383876
0.052257541457221
0.052227481227724
0.052188086874409
0.0521378099497
0.052074779648608
0.051996841834925
0.051901540741935
0.051786048997043
0.051647092887134
0.051480952135707
0.051283284804573
0.05104924137849
0.050773198206549
0.050449072355473
0.050069701961861
0.049627616344772
0.049113712072606
0.048519055003774
0.04783206923477
0.04704245239598
0.04613555948768
0.045099367934186
0.043915978151951
0.042565387668912
0.041028832799481
0.039247760000096
0.037214473100954
0.053920184805442
0.053916082367213
0.053907466687603
0.053895426156746
0.053879709428281
0.053858927675357
0.053831581014592
0.053795817980015
0.053749386414422
0.053689553588848
0.053613325747157
0.053517417190215
0.053398241246333
0.053251570080442
0.053072706274393
0.052855875510064
0.052594903251392
0.052281969417281
0.051909549028811
0.051467270741364
0.050946796747921
0.05033374227185
0.049620383126081
0.048784951274154
0.047824736635594
0.046703177609883
0.04542999243267
0.043935222649715
0.042219436857016
0.040048773034707
0.0011310232135353
0.00061497837474727
9.0886099113351e-05
-0.00044011341552492
-0.00097709710710478
-0.0015193484266653
-0.0020662080975495
-0.0026170096188419
-0.0031710686779932
-0.0037276752470102
-0.0042860942376995
-0.0048455814135457
-0.0054053978449775
-0.0059648125668126
-0.0065231001487189
-0.007079541673007
-0.0076334273845066
-0.0081840591789411
-0.0087307528191421
-0.0092728396765864
-0.0098096683348957
-0.010340603647495
-0.010865023034482
-0.011382308206871
-0.011891843691898
-0.012393105010149
-0.012885832816313
-0.013369610039925
-0.013843936241697
-0.014308336784975
-0.014762412023927
-0.015205831391649
-0.015638314805259
-0.016059617086054
-0.016469529409413
-0.016867873915548
-0.017254514066118
-0.017629341202766
-0.017992295395744
-0.018343333730195
-0.018682475569361
-0.019009731437273
-0.01932520543194
-0.019628942158634
-0.019921151115095
-0.020201875385434
-0.020471484595722
-0.020729950586829
-0.020977975357788
-0.021215370747912
0.0012832234923812
0.00075864628220318
0.00022494273207104
-0.00031566947642737
-0.00086197455407338
-0.0014134169255528
-0.001969542657361
-0.0025298360350421
-0.0030937025597218
-0.0036604568936939
-0.0042293482895137
-0.0047996138595452
-0.0053705069551232
-0.0059412902210104
-0.0065112222441519
-0.0070795567933978
-0.0076455485968423
-0.0082084572534255
-0.0087675494394498
-0.0093221024928725
-0.0098714091572063
-0.010414784743569
-0.010951578257009
-0.011481191481597
-0.012003094568588
-0.012516734404312
-0.013021315584763
-0.013516269620474
-0.014001168210681
-0.014475620953239
-0.014939243700963
-0.015391667852381
-0.015832561448674
-0.016261631885413
-0.016678634224218
-0.017083359838367
-0.017475652666596
-0.017855384207596
-0.018222489524564
-0.018576910383481
-0.018918677098322
-0.019247783646387
-0.019564369711733
-0.019868445005089
-0.020160292647887
-0.020439859981056
-0.020707648081179
-0.020963339583355
-0.021207785769943
-0.021439751630618
0.0015693873316247
0.0010226301222617
0.00046421650633169
-0.00010119866053933
-0.00067154405290588
-0.0012464150987847
-0.0018256654306406
-0.0024089993858287
-0.0029959272390585
-0.0035857490165608
-0.0041776324558192
-0.0047707419907485
-0.0053642948635024
-0.0059575333967413
-0.0065496896848027
-0.0071399823682076
-0.0077276278257579
-0.0083118463693883
-0.0088918651754833
-0.0094669230250303
-0.010036276249732
-0.010599201722418
-0.011154996291608
-0.01170296958664
-0.012242431412632
-0.012772707997764
-0.013293250376043
-0.013803516573739
-0.014302996380733
-0.014791219573316
-0.015267756458393
-0.015732213493076
-0.016184241698963
-0.016623532278634
-0.017049830993392
-0.017462920226623
-0.0178626458679
-0.018248875082184
-0.018621557512593
-0.01898062966751
-0.019326155438584
-0.019658112803178
-0.019976710380068
-0.020281906870714
-0.020574124394863
-0.020853159697591
-0.021119786215862
-0.021373223525824
-0.021614706738416
-0.021841187167954
0.0019728020091809
0.001391132484325
0.00079435141301462
0.00019096197744874
-0.00041568672473276
-0.0010254941336767
-0.0016388373483695
-0.0022557727618698
-0.0028759697923903
-0.0034987129441473
-0.0041230659810192
-0.0047481097298061
-0.0053730358924761
-0.0059970874291044
-0.0066194889869404
-0.0072394389144012
-0.0078561282935143
-0.0084687496145743
-0.0090764985903662
-0.0096785789990729
-0.010274208779402
-0.010862623257337
-0.011443077476434
-0.012014851591141
-0.012577261569812
-0.013129664323323
-0.01367142790636
-0.014201966634916
-0.014720737905755
-0.015227238676486
-0.015721010649809
-0.01620163685496
-0.016668751723464
-0.017122030478811
-0.017561208547661
-0.017986054201143
-0.018396409952282
-0.018792129397748
-0.019173171031951
-0.019539454262975
-0.019891074092872
-0.020227973960458
-0.020550435908754
-0.02085833347365
-0.021152248538144
-0.021431748790909
-0.021697924067171
-0.021949292132091
-0.022187459116099
-0.022406605170475
0.0024846498905833
0.0018568789972425
0.0012094962845358
0.00055629830434837
-9.7673814532716e-05
-0.00075281465783588
-0.0014102679686371
-0.0020705743651477
-0.0027336034428874
-0.0033986106966848
-0.0040645243270633
-0.0047303234127429
-0.0053951770645124
-0.0060583398628534
-0.0067190363730189
-0.0073764471239248
-0.0080297384766857
-0.0086780758654092
-0.0093206250837275
-0.0099565580383432
-0.010585061374234
-0.011205340740833
-0.011816623125622
-0.012418159511207
-0.013009228813541
-0.013589141090054
-0.014157241582427
-0.014712911049356
-0.015255572153372
-0.015784689160725
-0.016299775138447
-0.016800386244075
-0.017286134132708
-0.017756670407645
-0.018211712413924
-0.01865100625488
-0.019074383493592
-0.019481675956889
-0.019872843923231
-0.02024778009195
-0.020606604354346
-0.020949212530649
-0.021275957326906
-0.02158660406787
-0.021881901247533
-0.022161138279976
-0.022425750362459
-0.022673416590074
-0.022906147185184
-0.023114724524285
0.0031000896701477
0.0024157583086432
0.0017060554142178
0.00099167183179899
0.00027980020556019
-0.00043065994451094
-0.0011418833895554
-0.0018550262959258
-0.0025701843470922
-0.003286555695576
-0.0040028928543228
-0.004718049637244
-0.0054311710264969
-0.0061415311701224
-0.0068483590348735
-0.0075508165089868
-0.0082480433688265
-0.0089391767380954
-0.0096233516826581
-0.010299707803958
-0.010967399442113
-0.011625599560576
-0.012273500574252
-0.012910316170485
-0.013535286494899
-0.014147686175455
-0.01474682957171
-0.015332064911642
-0.015902780961371
-0.016458407943357
-0.016998426958232
-0.017522362504982
-0.018029797325024
-0.018520353161467
-0.018993722266742
-0.019449622508167
-0.019887866715897
-0.020308258277819
-0.020710749260076
-0.021095197757915
-0.021461736240339
-0.021810204230234
-0.02214101181447
-0.022453805748419
-0.022749490043491
-0.023027057266338
-0.023288281614347
-0.023529928466411
-0.02375435862665
-0.023948431200183
0.0038169213636377
0.0030659507604056
0.0022823934985534
0.0014956521556825
0.0007155765933894
-5.9896196568822e-05
-0.00083428269935047
-0.0016094981410873
-0.0023858811150245
-0.0031625328488741
-0.0039379838556142
-0.0047109385799057
-0.0054805180761063
-0.0062460243070896
-0.0070066945542885
-0.0077616705198344
-0.0085100618214912
-0.0092509744204697
-0.0099835103828686
-0.010706774369806
-0.01141988548686
-0.01212198105143
-0.012812216618294
-0.013489768005027
-0.01415383799432
-0.014803664659587
-0.015438522300448
-0.016057720414974
-0.016660609992057
-0.017246582969449
-0.017815082187405
-0.018365593469292
-0.018897661918377
-0.019410871180663
-0.019904877706366
-0.020379361785553
-0.020834103351636
-0.021268867024532
-0.021683578438371
-0.022078050852973
-0.022452405802948
-0.022806417793016
-0.023140523313058
-0.023454246055364
-0.023748603022986
-0.02402229098077
-0.024277357911902
-0.024509630917202
-0.024721659652697
-0.024895960226801
0.0046356076647719
0.003808136935178
0.0029391627519639
0.0020688991425567
0.0012104178427831
0.00036037636197593
-0.00048645531598324
-0.0013329134559334
-0.0021795847803483
-0.0030254187293065
-0.003868671850578
-0.0047078749795049
-0.0055421253923821
-0.0063707613872174
-0.0071930317626658
-0.0080080543151683
-0.0088149029853715
-0.0096126473820359
-0.010400351874251
-0.011177082196171
-0.011941918550576
-0.012693958944807
-0.01343231817245
-0.01415612972219
-0.014864553140727
-0.015556782980535
-0.016232047712918
-0.016889611195491
-0.017528778659468
-0.018148895948518
-0.018749358564429
-0.019329604462331
-0.019889129404656
-0.02042746812283
-0.020944226058559
-0.021439033700557
-0.0219116188534
-0.02236169475644
-0.022789135806237
-0.023193698521614
-0.0235754609398
-0.023934124796505
-0.024270107383835
-0.024582813429509
-0.024873300731534
-0.025139997485628
-0.02538510154165
-0.025603538962321
-0.025797805289901
-0.025945818386247
0.0055588097365422
0.0046450738184451
0.003678914495933
0.0027137960867427
0.0017666556940347
0.00083249025989397
-9.6088881179519e-05
-0.0010230271315433
-0.0019491533878342
-0.0028731906635444
-0.0037930581334802
-0.0047070885294215
-0.0056143593057005
-0.0065142535261145
-0.0074060321974152
-0.0082887832731089
-0.0091615369147823
-0.010023319536765
-0.010873152274184
-0.011710056471497
-0.012533067823432
-0.013341239195846
-0.014133638199784
-0.014909349041483
-0.015667480572343
-0.016407176478906
-0.017127611588381
-0.017827995928652
-0.018507579591205
-0.019165652727182
-0.019801551859616
-0.020414655943772
-0.021004396837291
-0.021570247275445
-0.022111743404593
-0.022628451497489
-0.023120023982262
-0.023586106952732
-0.024026494187324
-0.024440868388982
-0.024829225609986
-0.025191179136544
-0.02552707134505
-0.025836191503068
-0.026119540472725
-0.02637534583705
-0.026605771347603
-0.026804969531824
-0.026975058632986
-0.027089071328557
0.0065909100169169
0.0055811326652439
0.0045057064915853
0.0034341589541736
0.0023879833912798
0.00136004743409
0.00034029252152652
-0.00067653360944181
-0.0016914764878707
-0.0027029397418739
-0.0037084366357262
-0.0047060788064824
-0.00569492888597
-0.0066744244385224
-0.0076438390300139
-0.0086022219685197
-0.0095485489915369
-0.010481794101355
-0.011400927494758
-0.012304919537522
-0.013192754675409
-0.014063433254936
-0.014915967779843
-0.015749385094565
-0.016562734897936
-0.017355101318047
-0.018125595785543
-0.018873364620721
-0.01959759126422
-0.02029749877112
-0.020972350848859
-0.021621454064751
-0.022244159014345
-0.022839861102259
-0.023408005733219
-0.023948077366633
-0.024459627138359
-0.02494221431678
-0.025395521845081
-0.025819135322621
-0.026212934646215
-0.026576416586042
-0.026909797795002
-0.027212236751389
-0.027484539266471
-0.027724840284208
-0.027934882434466
-0.028108450165305
-0.028246721462388
-0.028317606229995
0.0077376283865952
0.0066219309886959
0.0054246854924164
0.0042348020189885
0.0030791012198424
0.0019476960565627
0.00082720550935272
-0.00028914432979439
-0.0014025335746251
-0.0025109099566808
-0.0036113071302913
-0.0047016039894247
-0.0057808593732776
-0.0068485714062635
-0.0079040221605483
-0.008946212071114
-0.0099740496941556
-0.010986445496836
-0.011982310297396
-0.012960555697341
-0.013920106572448
-0.014859901853729
-0.015778889465486
-0.016676029357938
-0.017550302114818
-0.018400722143209
-0.019226326176942
-0.020026185454843
-0.020799403895179
-0.02154512454602
-0.022262522249323
-0.022950815869739
-0.023609254926493
-0.024237139471375
-0.024833799202881
-0.02539861655079
-0.02593100982154
-0.026430429434217
-0.026896407289753
-0.027328411194098
-0.027726156675917
-0.028089011309207
-0.028417013785775
-0.028709215193563
-0.028966097212359
-0.029185939623911
-0.029369311518891
-0.029510667887262
-0.029606850646862
-0.029621129654018
0.0090053589480326
0.0077738799452109
0.0064419594769303
0.0051215003655821
0.0038455600950538
0.0026008537902534
0.0013699148938322
0.00014416999222671
-0.0010775841658685
-0.0022926501543246
-0.0034974946003976
-0.0046897672565612
-0.0058685444219976
-0.007033389522959
-0.0081835828494394
-0.0093180597307333
-0.010435646217678
-0.011535176396298
-0.012615491085071
-0.013675434235694
-0.014713861891293
-0.015729641243815
-0.016721644698914
-0.01768875445211
-0.018629870713929
-0.01954392666376
-0.020429871857502
-0.021286689941656
-0.022113390953885
-0.022909023472948
-0.023672656343657
-0.024403403967325
-0.025100392570907
-0.025762807911084
-0.026389834781402
-0.02698073390134
-0.027534748049665
-0.028051206215355
-0.028529417645496
-0.028968742072782
-0.029368601628332
-0.029728276482469
-0.030047447859872
-0.030325048905595
-0.030561267213474
-0.03075407203887
-0.030904039616525
-0.031004234663173
-0.031054238753109
-0.031005707820457
0.010401417587787
0.009043281000547
0.0075634790667207
0.0061002923366448
0.004693506908528
0.0033256206547131
0.0019743290160917
0.00062905214894749
-0.00071127567448937
-0.0020431038952095
-0.0033622394378865
-0.0046661087935545
-0.0059538327222227
-0.0072250437810081
-0.008479004352534
-0.0097145645259469
-0.010930449868504
-0.012125404201681
-0.013298187565637
-0.014447565478522
-0.01557231333085
-0.016671214229173
-0.017743052387964
-0.018786619860743
-0.019800724007905
-0.020784204235772
-0.021735909577332
-0.02265472246141
-0.023539544074867
-0.024389313390289
-0.025202974851461
-0.025979520722001
-0.026717930857023
-0.027417257583698
-0.028076508059474
-0.028694804105813
-0.029271164760839
-0.029804788284933
-0.03029468471002
-0.03074011792012
-0.031140099491544
-0.031493841744149
-0.031800569943934
-0.032058891504036
-0.032269064655975
-0.032427541449284
-0.032536264668353
-0.032586975084794
-0.032576150025174
-0.032458953321345
0.011933349875698
0.010438016197409
0.008796116282084
0.0071775627695109
0.0056293469595423
0.0041283935613909
0.002646649237597
0.0011714286585731
-0.00029794260559967
-0.0017568473222903
-0.00320036771501
-0.0046257280624283
-0.0060321186236345
-0.0074192386906655
-0.0087863092685973
-0.010132066654228
-0.011455113982228
-0.012754089630055
-0.014027660087791
-0.015274500152338
-0.016493291165796
-0.017682717753935
-0.018841461625331
-0.019968210836614
-0.021061666127041
-0.022120559239455
-0.023143624571963
-0.024129629148043
-0.025077349700558
-0.025985599500571
-0.026853180562203
-0.027678944862037
-0.028461703019556
-0.029200352554049
-0.029893696541367
-0.030540688719939
-0.031140100812108
-0.031690944796645
-0.032191943003538
-0.032642128837839
-0.033040217442078
-0.033385073613079
-0.033675685385634
-0.033910212195296
-0.034088528823408
-0.034207070085503
-0.034266434544312
-0.034259288286559
-0.034177746934234
-0.033977051913291
0.013606525304095
0.011964096437829
0.010146229739113
0.0083598398754487
0.0066596951644281
0.0050157635919804
0.0033933096032486
0.0017774995042408
0.00016837178791806
-0.0014281558008186
-0.00300639109257
-0.0045633936975889
-0.0060984513263703
-0.0076113181401429
-0.009101139917611
-0.010566507014214
-0.012005876145484
-0.013417763107878
-0.014800726934053
-0.016153336266315
-0.017474161448456
-0.018761771801483
-0.020014730524607
-0.021231606364894
-0.022410978806996
-0.023551456770955
-0.024651645150099
-0.025710180054258
-0.026725698645347
-0.027696871711565
-0.02862234256228
-0.029500801067962
-0.030330874147532
-0.031111272775963
-0.031840586876608
-0.032517550884002
-0.033140700582376
-0.033708769644146
-0.034220244955497
-0.034673788208831
-0.035067885578861
-0.035400956262111
-0.03567166407438
-0.03587792183073
-0.036018540237858
-0.036090944979139
-0.036093109919581
-0.036018376173202
-0.035858848119607
-0.035562044712195
0.015425787164997
0.013626828315542
0.011619449606014
0.0096531148108109
0.007790813673543
0.0059940782461748
0.0042205655162107
0.0024533434325004
0.00069357724003114
-0.0010512617216552
-0.0027746962858828
-0.0044736927896286
-0.0061476611387704
-0.0077963781603488
-0.0094188656308842
-0.011013528173602
-0.012578650892566
-0.014112609419565
-0.015613837790414
-0.01708077984056
-0.018511875119013
-0.019905557609312
-0.021260253831801
-0.022574396273096
-0.023846427085891
-0.025074815829322
-0.026258023434606
-0.027394538082839
-0.028482844068781
-0.029521449156507
-0.030508827852515
-0.031443480389341
-0.032323845643826
-0.033148405816689
-0.033915544840824
-0.03462372098648
-0.03527123728665
-0.035856510737907
-0.036377737869823
-0.036833274454855
-0.037221137159446
-0.037539648159261
-0.03778657456025
-0.03796003851852
-0.038057728651962
-0.038076973524542
-0.038014833486723
-0.037864176608454
-0.037615781884571
-0.03721108835166
0.017394733296462
0.015430195162414
0.013220147722101
0.011062375273867
0.0090282603270503
0.0070691978626389
0.0051343063291174
0.0032047535381105
0.0012833731780568
-0.00062053415384124
-0.002499734208885
-0.0043512012122338
-0.006174491775091