/*--------------------------------*- C++ -*----------------------------------*\
| =========                 |                                                 |
| \\      /  F ield         | OpenFOAM: The Open Source CFD Toolbox           |
|  \\    /   O peration     | Version:  2112                                  |
|   \\  /    A nd           | Website:  www.openfoam.com                      |
|    \\/     M anipulation  |                                                 |
\*---------------------------------------------------------------------------*/
FoamFile
{
    version     2.0;
    format      ascii;
    arch        "LSB;label=32;scalar=64";
    class       surfaceScalarField;
    location    "7.6";
    object      phi;
}
// * * * * * * * * * * * * * * * * * * * * * * * * * * * * * * * * * * * * * //

dimensions      [0 3 -1 0 0 0 0];

oriented        oriented;

internalField   nonuniform List<scalar> 
43645
(
0.39512360383038
-4.7307356336087e-06
0.39513779996981
-1.4196102530014e-05
0.39516146429229
-2.3664282540691e-05
0.3951945545334
-3.3090199831749e-05
0.39523700541425
-4.2450839394235e-05
0.39528874816677
-5.1742711471036e-05
0.39534971410677
-6.0965899737577e-05
0.39541983535218
-7.0121206040593e-05
0.39549904210943
-7.9206718894173e-05
0.39558726192421
-8.821977742595e-05
0.39568439672709
-9.7134766573861e-05
0.39579031301386
-0.00010591625145128
0.39590482063899
-0.00011450759084766
0.39602771699621
-0.00012289632387215
0.39615879673086
-0.00013107970226732
0.39629795613968
-0.0001391593772784
0.39644514953325
-0.00014719336288206
0.39660051789991
-0.0001553683366609
0.39676418668651
-0.00016366875730381
0.39693649895604
-0.00017231224076782
0.39711756950928
-0.00018107052498951
0.39730786695726
-0.00019029742007824
0.39750730753319
-0.00019944054837185
0.3977166143995
-0.00020930683890626
0.39793535301736
-0.00021873859062504
0.39816489557357
-0.00022954252896889
0.39840407730187
-0.00023918170107316
0.39865558553729
-0.00025150820840303
0.39891649294035
-0.00026090737647497
-0.00027553730290498
0.39919203027037
0.37294700258208
-9.1785205983754e-06
0.37296042697212
-2.762043170565e-05
0.37298295078074
-4.6188029168946e-05
0.37301453543972
-6.4674796873635e-05
0.37305511643905
-8.3031777586451e-05
0.37310462905189
-0.00010125526426034
0.37316301052303
-0.00011934731212834
0.37323019843753
-0.00013730906308654
0.37330612675694
-0.00015513498226244
0.37339072464757
-0.00017281761334789
0.37348389367126
-0.00019030373697985
0.37358549761959
-0.00020752014780868
0.37369534145938
-0.00022435138006014
0.37381321473367
-0.00024076954881098
0.37393890258993
-0.00025676751045564
0.37407228911581
-0.00027254585617355
0.37421331725578
-0.00028822145697302
0.3743621136687
-0.00030416470458603
0.37451879366764
-0.00032034871213084
0.37468368327662
-0.00033720180628413
0.37485689022111
-0.00035427742665954
0.37503885938333
-0.0003722665398858
0.37522950789603
-0.00039008901905955
0.37542952268346
-0.00040932158448579
0.37563849242213
-0.00042770828764601
0.37585773014304
-0.00044878020817245
0.3760861474889
-0.00046759900523776
0.37632632633236
-0.00049168701052654
0.37657552989496
-0.00051011089900363
-0.00053882516456013
0.37683881779794
0.35201532222882
-1.3603165001668e-05
0.35202858968172
-4.0887821409392e-05
0.35205073101571
-6.8329299716691e-05
0.35208171188995
-9.5655608373532e-05
0.35212147582376
-0.00012279564991974
0.35216996344193
-0.00014974282235813
0.35222711546515
-0.00017649927687092
0.35229287247571
-0.00020306601669372
0.35236717062335
-0.00022943307459492
0.35244994010857
-0.00025558704480761
0.35254108147658
-0.00028144505288564
0.35264045571654
-0.00030689433715268
0.35274786191885
-0.0003317575333376
0.35286308141639
-0.00035598899869682
0.35298588692739
-0.0003795729752196
0.35311614853101
-0.00040280741472046
0.35325379112289
-0.00042586400497699
0.3533989246484
-0.00044929818710565
0.35355164375072
-0.00047306777235908
0.3537122584571
-0.00049781647116602
0.3538808539232
-0.00052287285185903
0.35405786085888
-0.0005492734349351
0.35424316903248
-0.00057539715234058
0.35443745336911
-0.00060360588077817
0.35464026386405
-0.00063051874227939
0.35485290793382
-0.00066142423736227
0.3550742343488
-0.00068892537944325
0.35530684201328
-0.00072429463433101
0.3555478728563
-0.00075114170249627
-0.00079339794849476
0.35580244568142
0.33225844945803
-1.8008609806584e-05
0.3322716252541
-5.4063560738536e-05
0.33229357373003
-9.0277718634046e-05
0.33232425129752
-0.00012633311940056
0.33236360199984
-0.00016214629687239
0.33241157107704
-0.00019771184541033
0.33246810406605
-0.00023303221311604
0.33253314519236
-0.00026810709158359
0.33260663196981
-0.00030291980210522
0.33268849366158
-0.00033744868800147
0.33277862668615
-0.00037157803037468
0.33287688545593
-0.00040515306120008
0.33298305854956
-0.00043793058266778
0.33309691461228
-0.00046984501834376
0.33321820926059
-0.000500867581754
0.33334679539431
-0.00053139350770582
0.33348257675318
-0.00056164532419718
0.33362564583992
-0.00059236723497284
0.33377607472807
-0.000623496622461
0.33393415863324
-0.00065590033880496
0.33409995780502
-0.00068867198666591
0.33427389166304
-0.00072320725620482
0.3344558180131
-0.00075732346595939
0.33464640582318
-0.00079419365438514
0.33484515716804
-0.00082927005072773
0.33505338863807
-0.00086965567073816
0.33526986960142
-0.00090540630600332
0.33549725963101
-0.00095168462727491
0.33573255533357
-0.00098643736952988
-0.0010419295218819
0.33598108694409
0.31361046584934
-2.2417031310933e-05
0.31362361317059
-6.7210831182963e-05
0.31364547658313
-0.00011214108032433
0.31367600759618
-0.00015686408227698
0.31371515215995
-0.00020129081160871
0.31376286105519
-0.0002454206928535
0.31381908660753
-0.00028925771907635
0.3138837796935
-0.00033280013250613
0.31395688255539
-0.00037602262043918
0.31403832677116
-0.00041889286157454
0.31412800715943
-0.00046125837792581
0.31422577293411
-0.00050291879646729
0.31433140178668
-0.00054355939723207
0.31444464787087
-0.0005830910656888
0.31456524680031
-0.00062146647557349
0.31469303167969
-0.00065917835242113
0.31482788308341
-0.00069649669423505
0.31496987565775
-0.00073435977630293
0.31511905905428
-0.00077267998669193
0.31527571463581
-0.00081255588842197
0.31543987752561
-0.00085283484495748
0.31561195555039
-0.00089528524957417
0.31579177198951
-0.00093713987380471
0.31597998878697
-0.00098241042038105
0.31617605572989
-0.0010253369620849
0.31638130146886
-0.0010749013777284
0.31659440823686
-0.0011185130417227
0.3168181091048
-0.001175385462845
0.31704922669672
-0.0012175549299195
-0.0012860401424168
0.3172933373506
0.29600911942165
-2.6834548901035e-05
0.29602225362016
-8.0344983000221e-05
0.29604405492612
-0.00013394233961447
0.2960744724538
-0.00018728156391684
0.29611345737878
-0.00024027569156884
0.29616096945173
-0.00029293272186599
0.29621697128588
-0.00034525951053952
0.29628142406934
-0.00039725287444138
0.29635427849499
-0.00044887700588139
0.29643547205417
-0.00050008638174803
0.29652490119214
-0.00055068747822423
0.29662241259303
-0.000600430160853
0.29672777510622
-0.00064892187517873
0.29684072983212
-0.00069604575740536
0.29696099358518
-0.00074173019557809
0.29708838066712
-0.00078656540216732
0.29722275002314
-0.0008308660189963
0.29736415973991
-0.00087576946243124
0.29751263938109
-0.00092115959793401
0.29766845736663
-0.00096837384439246
0.29783162622949
-0.0010160036787045
0.29800254120483
-0.0010662001959146
0.29818099326991
-0.0011155919101093
0.29836763351316
-0.0011690506347494
0.29856186150418
-0.001219564924237
0.29876501138336
-0.0012780512277442
0.29897567816578
-0.0013291797948381
0.29919666266724
-0.001396369935035
0.29942460373645
-0.0014454959707389
-0.0015267632639405
0.29966532688809
0.27939565149627
-3.1251486410907e-05
0.2794087428257
-9.343627144184e-05
0.27943043230709
-0.00015563178016082
0.27946066868784
-0.0002175179044308
0.27949941121063
-0.00027901817510811
0.27954663194212
-0.00034015341510005
0.27960230749044
-0.00040093502174907
0.27966641340129
-0.00046135874925972
0.27973891320564
-0.00052137677542892
0.27981975492593
-0.00058092806831492
0.27990884144108
-0.00063977396088778
0.28000602162674
-0.00069761031507316
0.28011106020661
-0.00075396042477317
0.28022368951264
-0.00080867503408986
0.2803436119677
-0.00086165262232394
0.28047062673617
-0.00091358014307299
0.28060457547991
-0.0009648147359987
0.2807455025746
-0.0010166965309243
0.28089342197155
-0.0010690789692843
0.28104859034319
-0.0011235421907068
0.28121100228753
-0.0011784155980936
0.28138103866133
-0.0012362365448016
0.28155846350737
-0.0012930167313895
0.28174391080642
-0.0013544979088631
0.28193673662285
-0.0014123907156772
0.28213826915084
-0.0014795837303887
0.28234702474202
-0.0015379353604705
0.28256585762086
-0.0016152027882828
0.28279122953169
-0.0016708678566674
-0.0017647451266359
0.28302921142105
0.26371460408633
-3.5646087873234e-05
0.26372758750881
-0.0001064196570969
0.26374905820969
-0.0001771024443531
0.2637789666291
-0.00024742628765944
0.26381728270198
-0.00031733421262324
0.2638639940355
-0.00038686471405488
0.26391909505078
-0.00045603600343656
0.26398257998948
-0.00052484365521645
0.2640544300854
-0.00059322683965039
0.26413460910702
-0.00066110705911537
0.2642230320296
-0.00072819685371644
0.26431955571221
-0.00079413396879509
0.26442394703267
-0.00085835171737842
0.26453593558409
-0.00092066355844134
0.26465521600585
-0.0009809330179271
0.26478157787993
-0.0010399419916707
0.26491485214958
-0.001098088980924
0.26505507364886
-0.0011569180059676
0.26520224723056
-0.0012162525273395
0.26535661972638
-0.001277914663184
0.26551817494097
-0.0013399707897456
0.26568727791467
-0.0014053394956772
0.26586367455293
-0.0014694133470663
0.26604797541903
-0.0015387987523185
0.26623950489057
-0.0016039201646724
0.26643957217839
-0.0016796509954765
0.26664662987484
-0.0017449930341679
0.26686356607324
-0.0018321389640504
0.26708667973629
-0.0018939814978118
-0.0020003338880001
0.2673222685211
0.24891363448773
-3.9987855393288e-05
0.2489264192069
-0.00011920434436493
0.24894752267459
-0.00019820588027803
0.24897689906997
-0.00027680265172112
0.24901453143065
-0.0003549665426744
0.24906042578676
-0.00043275904020381
0.24911459783777
-0.00051020802529233
0.24917706454535
-0.00058731033436276
0.24924782950757
-0.000663991774306
0.24932687735111
-0.00074015487581536
0.24941414100201
-0.00081546047867914
0.2495094915494
-0.00088948449096796
0.24961270525996
-0.00096156540358124
0.24972351619887
-0.0010314744736567
0.24984161952552
-0.0010990363216652
0.24996680232753
-0.0011651247713103
0.25009889334052
-0.0012301799721993
0.25023792334014
-0.0012959479842691
0.25038389661292
-0.0013622257793157
0.25053705311937
-0.0014310711490585
0.25069737544624
-0.0015002930963986
0.25086521245622
-0.0015731764855133
0.25104030414567
-0.0016445050165793
0.25122323208947
-0.0017217266761166
0.25141330468689
-0.001793992742188
0.25161179895384
-0.0018781452423372
0.25181712345662
-0.001950317516887
0.25203217787876
-0.0020471933662291
0.25225311992359
-0.0021149235233331
-0.002233661439234
0.25248644749561
0.23494334032377
-4.4240592465003e-05
0.23495581888798
-0.00013168288037664
0.2349763803544
-0.00021876731859984
0.23500498436987
-0.00030540663941432
0.23504162894672
-0.00039161109229532
0.23508634075475
-0.0004774708214935
0.2351391595551
-0.00056302679952229
0.23520012837416
-0.00064827912783939
0.23526927723487
-0.00073314061010372
0.23534661622265
-0.00081749383924959
0.23543210178292
-0.00090094601531271
0.23552562538848
-0.00098300807344459
0.23562698029799
-0.0010629202907317
0.23573591281966
-0.0011404069734681
0.23585212793473
-0.0012152514155533
0.23597541825676
-0.0012884150726052
0.23610562014436
-0.0013603818396388
0.23624276675537
-0.0014330945754649
0.23638687188312
-0.0015063308877299
0.23653817261706
-0.0015823718638871
0.236696661947
-0.001658782407608
0.23686267356913
-0.0017391880890235
0.23703595638043
-0.0018177878095247
0.23721705932061
-0.0019028295979727
0.23740529402947
-0.0019822274329088
0.2376018939624
-0.0020747451570932
0.23780524722977
-0.0021536707662291
0.23801824366429
-0.002260189782948
0.23823692675863
-0.0023336066005704
-0.0024646988609053
0.23846796419868
0.22175709447628
-4.836525560628e-05
0.22176915114621
-0.00014373952584047
0.22178898349015
-0.00023859963812923
0.22181655779256
-0.00033298091765004
0.22185188817895
-0.00042694145493034
0.22189502331462
-0.00052060593374821
0.22194602890368
-0.00061403236566454
0.22200497639349
-0.00070722659509299
0.22207192531327
-0.00080008950785264
0.2221469148484
-0.00089248335274121
0.22222992973284
-0.00098396087867583
0.22232088734619
-0.0010739656661207
0.22241960522417
-0.0011616381486015
0.22252584954324
-0.0012466512728095
0.22263934468968
-0.0013287465428096
0.22275989710211
-0.0014089674661822
0.22288736120296
-0.0014878459221199
0.22302177950829
-0.0015675128626985
0.22316318632155
-0.001647737683292
0.22331182076375
-0.0017310062885774
0.22346769929803
-0.0018146609247083
0.22363114320362
-0.0019026319775311
0.22380192734782
-0.0019885719369039
0.22398056695611
-0.0020814691894742
0.22416639872201
-0.0021680591822331
0.22436060467108
-0.0022689510895712
0.22456157959122
-0.0023546456699784
0.2247721847664
-0.0024707949419891
0.22498838299384
-0.0025498048125417
-0.0026932950821719
0.22521697923176
0.2093108894164
-5.2322701641545e-05
0.20932240756152
-0.00015525764936702
0.2093413240636
-0.00025751611862609
0.20936761191173
-0.0003592687443304
0.20940130158661
-0.00046063110866108
0.209442464182
-0.00056176850819294
0.20949119215233
-0.00066276031540029
0.20954758646153
-0.00076362088391041
0.20961173793832
-0.00086424096464961
0.20968371720903
-0.00096446260370179
0.20976354088957
-0.0010637845398846
0.20985115670835
-0.0011615814658418
0.20994641288474
-0.0012568943063611
0.21004910237878
-0.0013493407484847
0.21015897809196
-0.0014386222380555
0.21027586822456
-0.0015258575810933
0.21039965559979
-0.0016116332800762
0.21053039908748
-0.0016982563333207
0.21066816469817
-0.001785503277291
0.21081319912916
-0.0018760407030362
0.21096555615714
-0.0019670179364953
0.21112554893597
-0.0020626247402833
0.2112929965954
-0.0021560195805371
0.21146838261437
-0.0022568551927339
0.21165109279849
-0.002350769350896
0.21184225361463
-0.002460111890331
0.21204029712197
-0.0025526891622022
0.21224804045813
-0.0026785382633481
0.21246140661019
-0.0027631709504862
-0.0029191892437716
0.21268730078697
0.19756319007016
-5.6076223884455e-05
0.19757406020639
-0.00016612776653098
0.19759188596987
-0.0002753418630025
0.19761664627889
-0.00038402903429406
0.19764838760298
-0.00049237241389851
0.19768720305575
-0.00060058394221938
0.1977332114754
-0.00070876871653231
0.19778654311861
-0.00081695250872101
0.19784732050062
-0.00092501832852139
0.19791564656726
-0.0010327886523324
0.19799157195838
-0.0011397099132892
0.19807507775156
-0.0012450872414495
0.19816604791603
-0.0013478644535807
0.1982643078776
-0.0014476006929689
0.19836964701606
-0.0015439613597605
0.19848192225891
-0.0016381328073608
0.19860105427765
-0.0017307652825594
0.19872712473205
-0.0018243267716224
0.19886024194476
-0.0019186204742274
0.19900066591661
-0.0020164646592534
0.19914850141281
-0.0021148534173693
0.19930405906241
-0.002218182374679
0.19946722124782
-0.0023191817510239
0.19963844413723
-0.0024280780673231
0.19981718801512
-0.0025295132142425
0.20000452329537
-0.0026474471561474
0.20019895390221
-0.0027471197548836
0.20040323896654
-0.0028828233138646
0.20061331382186
-0.0029732457926478
-0.0031420154849676
0.20083614007722
0.18647479376328
-5.9592601108019e-05
0.18648492114544
-0.00017625513151087
0.18650150234346
-0.00029192304375229
0.18652452223681
-0.00040704891037125
0.186554042263
-0.00052189242292432
0.18659017609448
-0.00063671775658529
0.1866330675337
-0.0007516601387738
0.1866828748165
-0.00086675977458868
0.18673975131485
-0.00098189481009577
0.18680383164739
-0.0010968689681577
0.18687520099051
-0.0012110792398833
0.18695387511185
-0.0013237613463261
0.18703977709342
-0.0014337664189053
0.18713276885662
-0.0015405924400173
0.18723268251829
-0.0016438750055128
0.18733940923832
-0.0017448595115814
0.18745291537143
-0.0018442714001359
0.18757331069226
-0.0019447220770399
0.18770075508647
-0.0020460648533178
0.18783552718018
-0.0021512367379886
0.18797779539444
-0.0022571216169555
0.18812787402502
-0.0023682609907375
0.18828572728438
-0.0024770349961606
0.18845179041425
-0.0025941411831212
0.18862562492238
-0.0027033477085921
0.18880824668673
-0.0028300689068806
0.18899827066481
-0.002937143719641
0.18919838311954
-0.0030829357556381
0.18940459790081
-0.0031794605615678
-0.0033612927624915
0.18962387519164
0.17600870024775
-6.2844074240983e-05
0.17601800718202
-0.00018556205005647
0.17603321702323
-0.00030713286910535
0.17605432036459
-0.00042815223582662
0.17608139223938
-0.00054896428189922
0.17611456475416
-0.00066989025555028
0.17615400421903
-0.00079109958793135
0.17619989417739
-0.0009126497172523
0.17625241646225
-0.0010344170793776
0.17631173545813
-0.0011561879484713
0.17637796999143
-0.0012773137577525
0.17645117010883
-0.001396961448313
0.17653129944804
-0.0015138957428409
0.17661825858512
-0.0016275515618387
0.17671192653385
-0.0017375429391665
0.17681223236753
-0.001845165330236
0.17691919378131
-0.0019512327991144
0.17703295247262
-0.0020584807536399
0.17715372704355
-0.0021668394098139
0.17728181911978
-0.0022793287999371
0.17741747159857
-0.0023927740817602
0.17756100849234
-0.0025117978707113
0.17771249322112
-0.0026285197114693
0.17787234677491
-0.002753994723646
0.17804025928477
-0.0028712602054968
0.1782171942531
-0.0030070038624506
0.17840192302303
-0.0031218724771165
0.17859703950472
-0.0032780522252286
0.17879872037633
-0.0033811414216157
-0.003576417978946
0.17901384560531
0.16612998703808
-6.5809118716852e-05
0.1661384145268
-0.00019398952407293
0.16615215711692
-0.00032087544438981
0.16617121044002
-0.00044720554405452
0.16619566117413
-0.00057341500122646
0.16622565707583
-0.00069988614250371
0.16626138369645
-0.00082682619393549
0.16630304630234
-0.00095431230857416
0.16635085169843
-0.0010822224610437
0.16640499061142
-0.0012103268470688
0.16646561282871
-0.0013379359607821
0.16653280100711
-0.0014641496124482
0.16660655898929
-0.0015876537108557
0.16668682624528
-0.0017078188036643
0.16677353049688
-0.0018242471767134
0.16686664042721
-0.0019382752465377
0.16696622804868
-0.002050820406726
0.16707246900996
-0.002164721701157
0.16718564497026
-0.0022800153566121
0.16730608364339
-0.0023997674597337
0.16743411056024
-0.0025208009856138
0.16757006488709
-0.0026477521848106
0.16771412437884
-0.0027725791908424
0.16786670181489
-0.0029065721475815
0.16802764288211
-0.0030322012609675
0.16819785822425
-0.0031772191930949
0.1683763272065
-0.0033003414481661
0.16856552605225
-0.0034672510601098
0.16876189976454
-0.0035775151234542
-0.0037866608306238
0.16897214262766
0.15680569245499
-6.8472870798197e-05
0.15681320137221
-0.00020149842729125
0.15682541354833
-0.00033308760643675
0.15684232874521
-0.00046412072690749
0.15686404301109
-0.00059512925328622
0.1568907164319
-0.00072655954964686
0.15692254986897
-0.00085865961761359
0.1569597660256
-0.00099152845198666
0.15700259226427
-0.0011250486867582
0.15705124134822
-0.0012589759181986
0.15710589005719
-0.0013925846571239
0.15716665031171
-0.00152490985439
0.15723356384148
-0.0016545672281408
0.15730660798332
-0.0017808629330119
0.1573857584191
-0.0019033976000935
0.15747102335836
-0.0020235401733986
0.15756252893677
-0.0021423259728749
0.15766048519076
-0.0022626779429712
0.15776523738492
-0.0023847675388586
0.15787714140893
-0.0025116714720529
0.15799660920875
-0.0026402687741022
0.15812400052076
-0.0027751434858228
0.15825961881058
-0.002908197470104
0.15840387506458
-0.0030508283914026
0.15855679511132
-0.0031851212979441
0.15871923280247
-0.0033396568748053
0.15889042766863
-0.0034715363051907
0.1590727041461
-0.0036495275287139
0.15926290209963
-0.0037677130683422
-0.0039911695606231
0.15946741083931
0.14800470529098
-7.0827219182342e-05
0.14801127640774
-0.00020806953030932
0.14802192772875
-0.00034373891376378
0.14803666213741
-0.00047885512216059
0.14805558255064
-0.00061404965357443
0.14807885784781
-0.00074983483431577
0.14810669984578
-0.00088650160361765
0.14813934388873
-0.0010241724834365
0.14817703272384
-0.001162737510871
0.14821999618751
-0.0013019393712053
0.14826843304322
-0.0014410215025068
0.14832248048491
-0.0015789572859031
0.14838221405862
-0.0017143007918436
0.14844764647813
-0.001846295342526
0.14851879823254
-0.0019745493445877
0.14859571583025
-0.0021004577611913
0.14867857533478
-0.0022251854676017
0.14876762091636
-0.0023517235148539
0.14886325651764
-0.0024804031307016
0.14896586921057
-0.0026142841558239
0.14907595333863
-0.0027503528934228
0.14919389755048
-0.0028930876893728
0.14932013221071
-0.0030344321225715
0.14945507882486
-0.0031857749983088
0.14959896132234
-0.0033290037886945
0.14975257845661
-0.0034932740027691
0.14991547699473
-0.0036344348373293
0.1500897787424
-0.0038238292705821
0.15027285097316
-0.0039507852932598
-0.0041889588283416
0.15047064024785
0.1396976604218
-7.2870367921722e-05
0.1397032937141
-0.00021370280806142
0.13971238516459
-0.00035283034989146
0.13972493958352
-0.00049140952740003
0.1397410640341
-0.00063017409139524
0.13976093257427
-0.0007697033626611
0.13978476374584
-0.00091033276436109
0.13981280086085
-0.0010522095885159
0.13984529648291
-0.0011952331238688
0.13988249192989
-0.0013391348097676
0.13992460185362
-0.0014831314183869
0.13997178410539
-0.0016261395301473
0.14002414272331
-0.0017666594024954
0.14008172319245
-0.0019038758044704
0.14014458499459
-0.0020374111396177
0.14021281153242
-0.0021686842919283
0.14028662021268
-0.0022989941408902
0.14036628967608
-0.002431392971388
0.14045226947698
-0.0025663829250323
0.1405449855109
-0.0027070001835054
0.14064499656894
-0.0028503639457368
0.1407527408985
-0.003000832013779
0.14086875230246
-0.0031504435220615
0.14099349443539
-0.0033105171274601
0.14112737543915
-0.0034628847893577
0.14127117084628
-0.0036370694073725
0.14142477984436
-0.0037880438332702
0.1415900570242
-0.0039891064483674
0.14176506569984
-0.004125793966486
-0.0043788701855933
0.14195497706075
0.13185683975646
-7.4605379004534e-05
0.13186155121804
-0.00021841425171905
0.13186911215982
-0.00036039127380661
0.13187952778765
-0.00050182513848693
0.13189290575897
-0.00064355204756378
0.13190942121401
-0.0007862188041642
0.13192929504632
-0.00093020658477708
0.13195277396906
-0.0010756885008179
0.13198011524199
-0.001222574387694
0.13201156642234
-0.0013705859820345
0.13204735192221
-0.0015189169110038
0.13208764511731
-0.0016664327185106
0.13213257215449
-0.0018115864333268
0.13218220795473
-0.0019535115985102
0.13223664354579
-0.0020918467246175
0.13229599719499
-0.0022280379351104
0.13236051511488
-0.0023635120548952
0.13243051216745
-0.00250139001825
0.13250646201521
-0.0026423327674173
0.13258884438797
-0.0027893825513493
0.13267824459371
-0.0029397641471973
0.13277519667208
-0.0030977840886418
0.13288026951557
-0.003255516362939
0.13299405786608
-0.0034243054762951
0.13311704329115
-0.0035858702136978
0.1332500960335
-0.0037701221498155
0.13339341645897
-0.0039313642593628
0.13354864607186
-0.0041443360619632
0.13371485842739
-0.0042920063220696
-0.0045593077114717
0.13389529595464
0.12445608016697
-7.6039184575912e-05
0.12445989747675
-0.00022223153526378
0.12446597991088
-0.00036647368102381
0.12447433082631
-0.00051017602834591
0.1244850554555
-0.00065427665339289
0.12449832691109
-0.00079949023874307
0.12451436414149
-0.00094624379649518
0.12453341145421
-0.0010947357969091
0.12455572430241
-0.0012448872210471
0.12458155028302
-0.0013964119491785
0.12461111836408
-0.0015484849796836
0.12464461308073
-0.0016999274234884
0.12468217862531
-0.0018491519667467
0.12472391600703
-0.0019952489693292
0.12476994141909
-0.0021378721259911
0.12482040214009
-0.0022784986455638
0.1248755594895
-0.0024186693939672
0.12493575997372
-0.0025615904924388
0.12500147866682
-0.0027080514509634
0.12507326222872
-0.0028611661043507
0.12515167523151
-0.0030181771419866
0.12523741209256
-0.0031835209427673
0.12533095939066
-0.0033490636553535
0.12543323364452
-0.0035265797257984
0.12554450042119
-0.0036971369873492
0.12566612451993
-0.0038917462467703
0.12579798331771
-0.0040632230562513
0.12594230186806
-0.0042886546116803
0.12609862736167
-0.0044483318143465
-0.0047304448535254
0.12626976450686
0.11747068926474
-7.7184636118457e-05
0.11747365202793
-0.00022519425689915
0.11747832863066
-0.00037115024052143
0.11748471452956
-0.00051656188527078
0.11749291047064
-0.00066247255507048
0.11750308705979
-0.00080966679139629
0.11751545946673
-0.00095861616979803
0.11753026604463
-0.0011095423436497
0.1175477541282
-0.0012623752755658
0.11756816291573
-0.001416820709287
0.11759171895714
-0.0015720409949127
0.11761861088263
-0.0017268193236666
0.11764899866874
-0.0018795397281611
0.11768300537162
-0.0020292556479243
0.11772077309593
-0.0021756398263435
0.11776246850104
-0.0023201940270282
0.11780836346625
-0.00246456433592
0.11785881554966
-0.0026120425531435
0.1179142952802
-0.0027635311595322
0.11797539360354
-0.0029222644067721
0.1180426452506
-0.0030854287694386
0.11811691250647
-0.0032577881806431
0.11819852652481
-0.0034306776574549
0.11828889476235
-0.0036169479490242
0.11838770056755
-0.0037959427801415
0.11849762284393
-0.0040016685126413
0.11861659960454
-0.0041821998078569
0.11874993141337
-0.0044219864123197
0.11889277774896
-0.0045911781414057
-0.0048946855591181
0.11905701846564
0.11087736695714
-7.8066641965049e-05
0.11087953735601
-0.00022736459311838
0.11088290832045
-0.00037452113982814
0.11088745722593
-0.00052111072686048
0.11089328056373
-0.00066829583179608
0.11090054497782
-0.00081693114760767
0.11090945749992
-0.0009675286370865
0.11092024883173
-0.0011203336232881
0.11093315667405
-0.0012752830678865
0.11094841024885
-0.0014320742357369
0.11096623242643
-0.0015898631254157
0.11098681327219
-0.001747400123249
0.11101032724785
-0.0019030536583692
0.11103690671843
-0.0020558350735803
0.11106671476087
-0.0022054478243781
0.11109991806554
-0.0023533972878054
0.11113680478666
-0.0025014510138479
0.11117771001393
-0.0026529477380765
0.1112231355563
-0.0028089566608111
0.1112736358737
-0.0029727646846622
0.11132982510401
-0.0031416179623089
0.11139252881118
-0.0033204918527237
0.1114621910741
-0.0035003398879174
0.11154029284608
-0.0036950496911939
0.11162634371822
-0.0038819936252568
0.1117240591495
-0.0040993839196746
0.11182952035403
-0.0042876609906917
0.1119522928952
-0.0045447589335298
0.11207788593368
-0.0047167711603519
-0.0050541703333542
0.11223737073077
0.10465411538399
-7.8715983533302e-05
0.10465559174853
-0.0002288408726384
0.10465777659511
-0.00037670589978521
0.1046606391137
-0.00052397316038866
0.10466427694634
-0.00067193358223989
0.10466884291374
-0.00082149703594422
0.10467453182709
-0.00097321747428629
0.10468156076673
-0.0011273624892041
0.10469016098168
-0.0012838832110123
0.10470054674042
-0.0014424599241232
0.10471293760338
-0.0016022539191101
0.1047275358595
-0.0017619983109678
0.10474454633689
-0.0019200640680759
0.1047641113222
-0.002075399991865
0.10478639861345
-0.0022277350492734
0.10481154612128
-0.0023785447300922
0.1048398517866
-0.0025297566146233
0.10487157806475
-0.0026846739530879
0.1049073033018
-0.0028446818365511
0.10494742581433
-0.0030128871384081
0.10499286335182
-0.0031870554440317
0.10504395742873
-0.0033715858774684
0.10510202216439
-0.0035584045750695
0.10516719473707
-0.0037602222191679
0.10524111577673
-0.0039559146240163
0.10532419130586
-0.0041824594119518
0.10541766133669
-0.0043811309884474
0.10552648992605
-0.0046535874927731
0.10564334135048
-0.0048336225560509
-0.0052023450333986
0.10579151608409
0.098780103260411
-7.9100884473006e-05
0.098780990546422
-0.00022972805895901
0.098782067770849
-0.00037778302387156
0.098783399007097
-0.00052530429801219
0.098785086063129
-0.00067362054220766
0.09878724097398
-0.00082365185333912
0.098790065656208
-0.00097604206533518
0.09879375369298
-0.0011310504365366
0.098798495526749
-0.0012886249566156
0.098804458742362
-0.0014484230524337
0.098811820357619
-0.0016096154477243
0.098820759499903
-0.001770937367097
0.098831510361913
-0.0019308148444541
0.098844284564692
-0.0020881741095186
0.098859322737631
-0.0022427731377994
0.098876761141445
-0.0023959830503472
0.098896882740432
-0.0025498781313682
0.098919850445373
-0.0027076415775866
0.09894627630032
-0.0028711076137578
0.09897637060232
-0.0030429813662204
0.099011428780276
-0.0032221135523623
0.099051267238621
-0.0034114242712361
0.099098367422202
-0.0036055046994105
0.099150889075045
-0.0038127438179894
0.099214323636959
-0.0040193491372389
0.099282310592757
-0.0042504463246387
0.099367084091398
-0.0044659044493061
0.099453750621246
-0.0047402539885639
0.099565457328183
-0.0049453292296619
0.099731912719941
-0.0053688003867371
0.39456971857728
0.0046223117203887
0.39011126115055
0.0044584574534522
0.38582128830928
0.0042899728678266
0.38170423555582
0.0041170527802152
0.37776432165069
0.0039399139321752
0.37400555757968
0.0037587640985063
0.37043175315012
0.0035738044574545
0.36704652351209
0.003385229666444
0.36385329677845
0.0031932267624494
0.36085532068434
0.00299797612341
0.35805566861632
0.0027996520976721
0.35545724310151
0.0025984255449015
0.35306277847165
0.0023944646602136
0.35087484147446
0.0021879370279113
0.3488958321455
0.0019790093598674
0.34712798354992
0.0017678486267588
0.34557336173438
0.0015546218467944
0.3442338647653
0.001339497000541
0.34311122045229
0.0011226443444597
0.3422069828695
0.00090423761436778
0.34152252423223
0.00068445866875828
0.34105902162419
0.00046350263962973
0.34081741865797
0.00024160299768024
0.34079808511046
1.9333579054306e-05
0.34100244675878
-0.00020436161690252
0.34143041066383
-0.00042796387354235
0.34208204507058
-0.00065163437536605
0.34295719951339
-0.00087515441133608
0.34405545729054
-0.0010982577457916
0.34537613353684
-0.0013206762148694