/*--------------------------------*- C++ -*----------------------------------*\
| =========                 |                                                 |
| \\      /  F ield         | OpenFOAM: The Open Source CFD Toolbox           |
|  \\    /   O peration     | Version:  2112                                  |
|   \\  /    A nd           | Website:  www.openfoam.com                      |
|    \\/     M anipulation  |                                                 |
\*---------------------------------------------------------------------------*/
FoamFile
{
    version     2.0;
    format      ascii;
    arch        "LSB;label=32;scalar=64";
    class       volVectorField;
    location    "7.6";
    object      U;
}
// * * * * * * * * * * * * * * * * * * * * * * * * * * * * * * * * * * * * * //

dimensions      [0 1 -1 0 0 0 0];

internalField   nonuniform List<vector> 
22000
(
(1.000000969317 -2.468445828127e-05 0)
(1.0000255329649 -7.4168004251154e-05 0)
(1.0000727956715 -0.00012353332399009 0)
(1.000143874457 -0.00017260802564742 0)
(1.0002390728998 -0.00022129135560086 0)
(1.0003582058222 -0.00026958644840908 0)
(1.0005009347745 -0.00031750657572589 0)
(1.0006669399062 -0.00036506107528651 0)
(1.000855972345 -0.00041224115506695 0)
(1.0010678665578 -0.0004590345744648 0)
(1.0013024445601 -0.00050531281522918 0)
(1.001559454936 -0.00055090197373088 0)
(1.0018384757444 -0.00059551979750898 0)
(1.0021390040629 -0.00063911468731434 0)
(1.0024604630244 -0.00068167697359428 0)
(1.0028024643301 -0.00072373716105392 0)
(1.003164754927 -0.00076558389984279 0)
(1.003547524419 -0.0008081843624968 0)
(1.0039510418149 -0.00085143506543357 0)
(1.0043760478703 -0.0008964817708637 0)
(1.0048229803965 -0.00094210671614506 0)
(1.0052928114548 -0.0009902016039674 0)
(1.0057857200991 -0.0010378224026146 0)
(1.0063029132749 -0.001089281774429 0)
(1.0068441765578 -0.0011383729408784 0)
(1.007411457088 -0.0011947583699302 0)
(1.0080039776711 -0.0012448036751461 0)
(1.0086251327641 -0.0013091843756804 0)
(1.0092727393628 -0.0013576920195652 0)
(1.0099525650554 -0.0014344785967513 0)
(1.0000004524556 -7.2780245361065e-05 0)
(1.000025147397 -0.00021877284253208 0)
(1.00007293637 -0.00036456406579746 0)
(1.0001448445331 -0.00050960649430897 0)
(1.0002412017329 -0.00065356695873528 0)
(1.0003618909267 -0.00079643408210393 0)
(1.0005066152964 -0.00093823699051727 0)
(1.0006750759319 -0.0010789962377167 0)
(1.0008670141114 -0.001218679870152 0)
(1.0010822655444 -0.0013572403376161 0)
(1.0013206217272 -0.0014942767902264 0)
(1.0015818319812 -0.0016292352090882 0)
(1.0018654074086 -0.0017612368550482 0)
(1.0021708435103 -0.0018900817281368 0)
(1.0024974400141 -0.0020157284465494 0)
(1.0028448489102 -0.0021397403795216 0)
(1.0032126379996 -0.0022630247989119 0)
(1.0036011646911 -0.0023884521759362 0)
(1.0040104098135 -0.0025158060958722 0)
(1.0044415121486 -0.0026484118587734 0)
(1.0048943424664 -0.0027827945500502 0)
(1.0053706968408 -0.0029243355701596 0)
(1.0058695655305 -0.0030646262866115 0)
(1.0063938730777 -0.0032159481497236 0)
(1.0069409135117 -0.0033607129036305 0)
(1.0075162969767 -0.003526419120324 0)
(1.0081139726806 -0.0036745513558744 0)
(1.0087452217852 -0.0038636828083776 0)
(1.0093965641936 -0.0040085885825566 0)
(1.0100907687869 -0.0042337739150115 0)
(1.0000005008746 -0.00011930257411438 0)
(1.0000263690735 -0.00035854892269668 0)
(1.0000762563716 -0.00059757718692152 0)
(1.0001511206871 -0.00083549342856801 0)
(1.0002512475326 -0.0010717326914157 0)
(1.0003765169591 -0.0013062557464354 0)
(1.0005266370897 -0.0015390922593232 0)
(1.0007013274824 -0.0017702605512247 0)
(1.0009003219698 -0.0019996888143086 0)
(1.001123466282 -0.0022272760717032 0)
(1.0013705159632 -0.0024523242855402 0)
(1.0016412276492 -0.0026738731660105 0)
(1.0019350286316 -0.0028904110391489 0)
(1.0022514247067 -0.003101558503768 0)
(1.0025895585701 -0.0033072050829228 0)
(1.0029491470201 -0.0035099334890193 0)
(1.0033295090979 -0.0037112490837856 0)
(1.0037312287453 -0.0039159411736203 0)
(1.0041538621823 -0.0041236644768126 0)
(1.0045991026465 -0.0043399539517399 0)
(1.0050659696564 -0.0045590381975412 0)
(1.005557475622 -0.004789831918797 0)
(1.0060707715341 -0.0050183841409793 0)
(1.0066114626784 -0.0052650383247431 0)
(1.007172779409 -0.0055006842048001 0)
(1.0077663642355 -0.0057708866764002 0)
(1.0083770484054 -0.0060119368079485 0)
(1.0090298609383 -0.00632089840962 0)
(1.0096907018091 -0.0065566758628131 0)
(1.0104137847243 -0.0069257214265626 0)
(1.0000005473277 -0.00016540419299817 0)
(1.0000277794225 -0.0004966800108188 0)
(1.0000802080577 -0.00082755605577679 0)
(1.0001588011588 -0.00115689264377 0)
(1.0002638294068 -0.0014839584869786 0)
(1.000395165605 -0.001808711442568 0)
(1.0005525050893 -0.0021311830345394 0)
(1.0007355774542 -0.002451381762872 0)
(1.0009441011141 -0.0027691767951279 0)
(1.001177936187 -0.0030843937912511 0)
(1.0014367897812 -0.0033960125925279 0)
(1.001720425846 -0.0037026533830812 0)
(1.0020281558585 -0.0040021470493303 0)
(1.0023594987961 -0.0042939238747931 0)
(1.0027133893296 -0.0045777654024526 0)
(1.0030896348749 -0.0048572661580239 0)
(1.003487226474 -0.0051344792251566 0)
(1.0039070547007 -0.0054161320344099 0)
(1.004348110058 -0.0057016909116976 0)
(1.0048128291428 -0.0059989672372289 0)
(1.0052990872185 -0.0062998009107604 0)
(1.005811539196 -0.0066167707776687 0)
(1.0063448460939 -0.0069301978873047 0)
(1.0069082657837 -0.0072687238126501 0)
(1.0074894757116 -0.0075913254462254 0)
(1.0081084182003 -0.0079621305211771 0)
(1.0087373419101 -0.0082914128611805 0)
(1.0094203690575 -0.008715934510859 0)
(1.010094718301 -0.0090368328491274 0)
(1.0108585870726 -0.0095455940861422 0)
(1.000000604053 -0.00021137734560228 0)
(1.000029415643 -0.00063404466720617 0)
(1.0000847864373 -0.0010559938026612 0)
(1.0001677042663 -0.0014759283289047 0)
(1.0002784343946 -0.0018930164891247 0)
(1.0004168520676 -0.002307246137988 0)
(1.0005826449082 -0.0027186592980514 0)
(1.0007755620279 -0.0031272505372818 0)
(1.0009953119214 -0.0035328090973133 0)
(1.0012417832635 -0.0039350620160461 0)
(1.0015146368195 -0.0043326273796468 0)
(1.0018136565654 -0.0047236702075236 0)
(1.0021380234981 -0.0051053078503203 0)
(1.0024872762797 -0.0054767453608694 0)
(1.0028601021671 -0.005837600736334 0)
(1.0032564143812 -0.006192482213688 0)
(1.003674812842 -0.0065439535836035 0)
(1.0041165523513 -0.0069007343313475 0)
(1.0045799512097 -0.0072620523481028 0)
(1.0050683368499 -0.007638088168314 0)
(1.0055782117248 -0.0080181741527388 0)
(1.0061162127449 -0.0084187047693721 0)
(1.0066739698647 -0.0088140294267385 0)
(1.0072652071127 -0.0092413890659011 0)
(1.0078707488523 -0.0096473664472564 0)
(1.0085208315354 -0.010115328202946 0)
(1.0091719870552 -0.01052850274404 0)
(1.0098923074509 -0.011064982456229 0)
(1.0105828072122 -0.011465683292387 0)
(1.0113973813837 -0.01211123925678 0)
(1.0000006686803 -0.00025736491527788 0)
(1.0000311900546 -0.00077104242214811 0)
(1.0000897346347 -0.00128356129204 0)
(1.0001773103853 -0.0017935691179212 0)
(1.0002941821362 -0.0023002022537048 0)
(1.0004402405906 -0.0028035116395788 0)
(1.0006151797417 -0.0033035588024759 0)
(1.00081878559 -0.0038003212341789 0)
(1.0010507686936 -0.0042934872045324 0)
(1.0013110619976 -0.0047826586895952 0)
(1.0015992863444 -0.0052660485003466 0)
(1.0019152587163 -0.0057413256917002 0)
(1.0022580253662 -0.0062048309121511 0)
(1.0026271531427 -0.0066555038481105 0)
(1.0030210631024 -0.0070927403045179 0)
(1.0034397869403 -0.0075221655745387 0)
(1.0038815002515 -0.0079468220636353 0)
(1.0043478596811 -0.0083774793444088 0)
(1.0048364489511 -0.0088130830225501 0)
(1.0053515841257 -0.0092662701177347 0)
(1.005888241485 -0.0097237503745191 0)
(1.0064552866201 -0.010205865224951 0)
(1.0070409117892 -0.010680756980465 0)
(1.0076639492403 -0.011194537464926 0)
(1.008297303951 -0.011680928854471 0)
(1.0089831978912 -0.012243195322736 0)
(1.0096596991919 -0.012736473409786 0)
(1.0104232151993 -0.013381897361318 0)
(1.0111317205929 -0.013857477780164 0)
(1.0120055781443 -0.014637583994052 0)
(1.0000007386954 -0.00030335058862241 0)
(1.0000329998699 -0.00090759826491482 0)
(1.0000947603662 -0.0015101261899906 0)
(1.0001870472429 -0.0021096401108397 0)
(1.0003101302048 -0.0027053229483576 0)
(1.0004639288497 -0.0032973286197394 0)
(1.0006481598467 -0.0038857526732941 0)
(1.0008626658734 -0.0044705570564614 0)
(1.0011071771452 -0.0050513113015341 0)
(1.0013816906091 -0.0056274671501128 0)
(1.0016858027888 -0.0061967879281698 0)
(1.0020193812315 -0.0067564023195175 0)
(1.0023813478663 -0.0073018069237836 0)
(1.0027713093032 -0.0078316291643545 0)
(1.0031874232156 -0.0083449818952319 0)
(1.0036298479396 -0.008848504313698 0)
(1.0040963324736 -0.0093456904087345 0)
(1.0045889517502 -0.0098494074296241 0)
(1.0051045396994 -0.010358288057168 0)
(1.0056484487364 -0.010887487269938 0)
(1.0062140548378 -0.011421004152822 0)
(1.0068126009872 -0.011983204686619 0)
(1.007428570949 -0.012535845898526 0)
(1.0080863769532 -0.013134086573389 0)
(1.0087501654647 -0.013698429968721 0)
(1.0094755349314 -0.014352546746873 0)
(1.0101797418897 -0.014922595316663 0)
(1.0109913259712 -0.015674284116856 0)
(1.0117191077379 -0.016220167500641 0)
(1.0126597137575 -0.017132898045174 0)
(1.0000008117014 -0.00034917726735748 0)
(1.000034743728 -0.0010432270505576 0)
(1.000099573592 -0.0017348791950068 0)
(1.0001963445463 -0.0024230236018725 0)
(1.0003253370642 -0.0031069783550794 0)
(1.0004865146835 -0.0037870478543631 0)
(1.0006796365176 -0.0044633823377868 0)
(1.0009046246085 -0.0051359344861801 0)
(1.001161252098 -0.0058041414085452 0)
(1.0014496030164 -0.0064672818439036 0)
(1.0017692736826 -0.0071226283111875 0)
(1.0021202026216 -0.0077667248826157 0)
(1.0025012109649 -0.0083941594402845 0)
(1.002911957392 -0.0090031971025629 0)
(1.0033503596404 -0.0095926110836499 0)
(1.0038167050756 -0.010170042306013 0)
(1.0043083449161 -0.01073941838024 0)
(1.0048277679028 -0.011315731696329 0)
(1.0053710906156 -0.01189729248 0)
(1.0059447029107 -0.012501794105197 0)
(1.0065403834086 -0.013110483184501 0)
(1.0071718158132 -0.013751749124319 0)
(1.0078196329938 -0.01438087769173 0)
(1.0085141434214 -0.015062109329417 0)
(1.0092101149621 -0.015702533626753 0)
(1.0099776452258 -0.016446508400801 0)
(1.0107111985998 -0.017090578172198 0)
(1.0115747750745 -0.017946252805726 0)
(1.0123226196447 -0.018558363472283 0)
(1.0133364382546 -0.019602155727472 0)
(1.0000008853205 -0.00039458054446042 0)
(1.0000363239748 -0.0011771341232382 0)
(1.000103894654 -0.0019565027069426 0)
(1.0002046521666 -0.0027318952537688 0)
(1.0003388951462 -0.0035028617282563 0)
(1.0005066474868 -0.0042699110188638 0)
(1.0007077330355 -0.005033275183098 0)
(1.0009421769284 -0.005792909834205 0)
(1.0012098222671 -0.0065481124477441 0)
(1.0015108644559 -0.0072979706380432 0)
(1.0018449306187 -0.0080392315377811 0)
(1.0022120518152 -0.0087678135915287 0)
(1.0026109841526 -0.0094773394318994 0)
(1.003041450896 -0.010165660649048 0)
(1.0035011738903 -0.010831162866296 0)
(1.0039905668535 -0.011482464471462 0)
(1.0045066430537 -0.012123921284005 0)
(1.0050522825515 -0.012772649371736 0)
(1.0056229633629 -0.013426655045035 0)
(1.006226074124 -0.014106136270307 0)
(1.0068518722579 -0.014789607604933 0)
(1.0075164703812 -0.015509381925931 0)
(1.0081966257188 -0.016214308459584 0)
(1.0089287326215 -0.016977568388821 0)
(1.0096577473679 -0.017692852829156 0)
(1.0104691558125 -0.018525198966089 0)
(1.0112329896617 -0.019241228759537 0)
(1.0121515773074 -0.02019907003887 0)
(1.012919850136 -0.020873986144777 0)
(1.0140124172024 -0.022047677517612 0)
(1.0000009573109 -0.00043922176908338 0)
(1.000037649281 -0.0013083128656815 0)
(1.0001074628381 -0.002173331639448 0)
(1.0002114587346 -0.0030339467933086 0)
(1.0003499615893 -0.0038900426024152 0)
(1.0005230721281 -0.0047423916008893 0)
(1.0007307020212 -0.0055913412435712 0)
(1.000973002591 -0.0064368686131398 0)
(1.0012499163147 -0.0072781318606713 0)
(1.0015617741222 -0.008114014817719 0)
(1.0019082704176 -0.0089407136995308 0)
(1.002289550191 -0.0097534853575119 0)
(1.0027043511565 -0.010544943317064 0)
(1.0031524732484 -0.011312475084248 0)
(1.0036315052204 -0.012054044364892 0)
(1.0041419799583 -0.012779209419989 0)
(1.0046806608683 -0.013492765745848 0)
(1.0052507821144 -0.014213917530025 0)
(1.0058473031705 -0.014940420886613 0)
(1.0064785419458 -0.015694882970982 0)
(1.0071333719804 -0.016453181973261 0)
(1.0078302693519 -0.017251345300637 0)
(1.0085421863561 -0.018031960454832 0)
(1.0093116915066 -0.018876815814853 0)
(1.010073661707 -0.019666453556417 0)
(1.0109296678871 -0.020586267044774 0)
(1.0117239720739 -0.021373007427111 0)
(1.0126996737759 -0.022431775275137 0)
(1.0134883521339 -0.023166910289502 0)
(1.0146642885674 -0.024469863714112 0)
(1.0000010252237 -0.00048271850930925 0)
(1.0000386379188 -0.001435635363995 0)
(1.0001100454863 -0.0023835037659984 0)
(1.0002163083916 -0.0033265945863148 0)
(1.0003577862686 -0.004265231873627 0)
(1.000534671467 -0.0052005142070932 0)
(1.000746985552 -0.0061329436533783 0)
(1.0009950268133 -0.007062542815925 0)
(1.0012788672524 -0.0079883383511053 0)
(1.0015989956395 -0.0089090034301768 0)
(1.0019552133095 -0.0098201687751045 0)
(1.0023477985778 -0.010716400631978 0)
(1.0027755257345 -0.011589276584719 0)
(1.0032382818575 -0.012435672164167 0)
(1.0037336009014 -0.013253113303398 0)
(1.0042621241249 -0.014052047198393 0)
(1.0048204762852 -0.014837741316626 0)
(1.005412198471 -0.015631416108838 0)
(1.0060318844141 -0.016430671835935 0)
(1.0066886919309 -0.017260364891588 0)
(1.0073702957897 -0.018093916226569 0)
(1.0080974348038 -0.018970748027216 0)
(1.008839400902 -0.019827509672103 0)
(1.0096449635747 -0.020754069154521 0)
(1.0104387767145 -0.021618311132312 0)
(1.0113390425619 -0.022625343209915 0)
(1.0121632018349 -0.023482465496275 0)
(1.0131971560612 -0.024641629278918 0)
(1.0140058240539 -0.025435418888828 0)
(1.0152687991142 -0.026867681097726 0)
(1.0000010871707 -0.00052467352650461 0)
(1.0000392209001 -0.0015579384923465 0)
(1.0001114462814 -0.0025851007710881 0)
(1.0002188187322 -0.0036071737656001 0)
(1.0003617414404 -0.0046250270168239 0)
(1.0005405101471 -0.0056401489812988 0)
(1.0007552757193 -0.0066532400419119 0)
(1.0010065001541 -0.0076643962229089 0)
(1.0012944140368 -0.0086725278180377 0)
(1.0016196824607 -0.0096760961339876 0)
(1.0019822538578 -0.010670164174466 0)
(1.0023825557786 -0.01164858722656 0)
(1.0028194591063 -0.012601899838594 0)
(1.0032929461694 -0.013526422134695 0)
(1.0038005854328 -0.014419248496829 0)
(1.0043431131733 -0.015291651047472 0)
(1.0049171429173 -0.016149425452322 0)
(1.0055264709569 -0.017015700742094 0)
(1.0061654996516 -0.017888059071209 0)
(1.0068441299017 -0.018793383677861 0)
(1.0075490519361 -0.01970290461909 0)
(1.008303156725 -0.020659014032475 0)
(1.0090722651622 -0.021592895818741 0)
(1.0099113412001 -0.022601788258404 0)
(1.0107347741657 -0.023541646371717 0)
(1.011677827401 -0.024636346744811 0)
(1.0125303293892 -0.025564521008459 0)
(1.0136226118457 -0.026824371723918 0)
(1.0144504130676 -0.02767645576813 0)
(1.0158030271319 -0.029238910691102 0)
(1.0000011412045 -0.00056470100892165 0)
(1.0000393476757 -0.0016741022979016 0)
(1.0001115205787 -0.0027762772867785 0)
(1.0002187051553 -0.0038731152973549 0)
(1.0003613555193 -0.0049661349311527 0)
(1.0005398782081 -0.0060572786141376 0)
(1.0007545694489 -0.007147491620542 0)
(1.0010060674028 -0.0082369738905161 0)
(1.0012947875368 -0.0093245415868623 0)
(1.0016215841213 -0.010408447996429 0)
(1.001986590764 -0.01148319942665 0)
(1.0023903951977 -0.012541928706082 0)
(1.0028320261768 -0.013574141296911 0)
(1.0033115663262 -0.014575564501068 0)
(1.0038267132543 -0.01554289100341 0)
(1.0043782833603 -0.016488142127454 0)
(1.0049630142125 -0.017417723993414 0)
(1.0055849062417 -0.018356532819979 0)
(1.006238352975 -0.019302314568327 0)
(1.0069339064514 -0.020283701459296 0)
(1.007657497016 -0.02127008472606 0)
(1.0084340651234 -0.022306308495226 0)
(1.009226171545 -0.023318708115932 0)
(1.010094968511 -0.024411021338342 0)
(1.0109446051268 -0.025428225663834 0)
(1.0119277434168 -0.026611739901945 0)
(1.0128060760003 -0.027612670236288 0)
(1.0139555655529 -0.028974385042371 0)
(1.0148011089665 -0.029885764503717 0)
(1.0162447239245 -0.031580233796595 0)
(1.0000011860024 -0.00060244467217203 0)
(1.0000389845408 -0.0017831006643281 0)
(1.0001101792891 -0.0029553457665383 0)
(1.0002157930142 -0.0041220692016272 0)
(1.0003563316421 -0.0052855366246379 0)
(1.0005323166769 -0.0064482055381332 0)
(1.0007442030594 -0.0076113126934273 0)
(1.0009928128624 -0.0087751932666004 0)
(1.001278768504 -0.0099385972431155 0)
(1.0016031199977 -0.011099578348928 0)
(1.0019662199221 -0.01225211043752 0)
(1.0023688209392 -0.013388600754589 0)
(1.0028101680373 -0.014497561078782 0)
(1.0032904454291 -0.015574094996346 0)
(1.0038075732951 -0.016614547075769 0)
(1.0043624330715 -0.017631602960399 0)
(1.0049520201176 -0.018632387029838 0)
(1.0055804930005 -0.019643391945704 0)
(1.0062424137948 -0.020662752336429 0)
(1.0069489088509 -0.021720525077365 0)
(1.0076853635447 -0.022784694979024 0)
(1.0084786924196 -0.023901963866218 0)
(1.009288403777 -0.024994570176722 0)
(1.0101818462947 -0.026171741294809 0)
(1.0110530119389 -0.02726864334245 0)
(1.0120722155422 -0.028542749519452 0)
(1.0129727576596 -0.029619155634562 0)
(1.0141769783495 -0.031084787372554 0)
(1.0150382185502 -0.032057943227949 0)
(1.016572733516 -0.033887197940887 0)
(1.0000012200733 -0.00063759206275767 0)
(1.0000381164793 -0.0018840422266721 0)
(1.0001073823566 -0.0031208464598275 0)
(1.000210000826 -0.0043520052866865 0)
(1.0003465284018 -0.005580619978687 0)
(1.0005176022924 -0.0068097178649061 0)
(1.0007238453371 -0.0080408712021737 0)
(1.0009662650619 -0.009274580656736 0)
(1.0012457056845 -0.010509561650817 0)
(1.0015634116789 -0.011743679969042 0)
(1.0019199821627 -0.012970412827638 0)
(1.0023163333381 -0.014181446930745 0)
(1.0027519784285 -0.015364356514056 0)
(1.0032272002601 -0.016513597290431 0)
(1.0037402274508 -0.01762524161035 0)
(1.0042919922586 -0.018712547775515 0)
(1.0048798705682 -0.019783489225521 0)
(1.0055081420206 -0.020865961194613 0)
(1.0061716965583 -0.02195875054094 0)
(1.0068821800804 -0.023092978946569 0)
(1.0076246226026 -0.024235729878421 0)
(1.0084278728423 -0.025434909908003 0)
(1.0092485753095 -0.026609535687404 0)
(1.0101603101842 -0.027873195554289 0)
(1.0110470363356 -0.029052620897734 0)
(1.0120968850347 -0.03041959406747 0)
(1.013014813064 -0.03157513003009 0)
(1.0142697716213 -0.033147503892875 0)
(1.0151438639038 -0.034186467515477 0)
(1.0167674793987 -0.036154124438906 0)
(1.0000012431431 -0.00066988858729213 0)
(1.0000367436159 -0.0019762135083669 0)
(1.0001031335059 -0.0032716162904681 0)
(1.0002013380169 -0.00456130497601 0)
(1.0003319586662 -0.0058492932257093 0)
(1.0004957452755 -0.0071392245512139 0)
(1.0006934928879 -0.0084330470572644 0)
(1.0009263893679 -0.0097314547774117 0)
(1.0011955082997 -0.011033162174812 0)
(1.0015022796218 -0.012335860388422 0)
(1.0018475670682 -0.013632574568527 0)
(1.0022324416887 -0.014914282984338 0)
(1.0026567276604 -0.016167696097406 0)
(1.0031208001102 -0.017386605334256 0)
(1.0036232691937 -0.018566905781424 0)
(1.0041651051946 -0.019722332926453 0)
(1.0047441674537 -0.020861857858833 0)
(1.0053648305243 -0.022014568994018 0)
(1.0060224421664 -0.023180199862975 0)
(1.0067291387006 -0.024390554719235 0)
(1.0074697460294 -0.025612382721026 0)
(1.0082750478353 -0.026894102011031 0)
(1.009098983909 -0.028152494290248 0)
(1.0100214196886 -0.029504277315724 0)
(1.0109164575159 -0.030769339149882 0)
(1.011990091303 -0.032231749928142 0)
(1.0129193043861 -0.033470859734478 0)
(1.0142193324428 -0.035153356773352 0)
(1.0151024808858 -0.036263707926293 0)
(1.0168114531231 -0.038373985354874 0)
(1.0000012542819 -0.00069914556425196 0)
(1.0000348821964 -0.0020590996278036 0)
(1.0000974821621 -0.00340682227985 0)
(1.0001899016989 -0.0047488077672397 0)
(1.0003127813452 -0.0060900459588777 0)
(1.0004669758254 -0.0074348336764317 0)
(1.000653450339 -0.0087855293457161 0)
(1.0008735619417 -0.010143044234521 0)
(1.0011286132359 -0.011506125498133 0)
(1.0014202038547 -0.012872304463826 0)
(1.001749470209 -0.014234204957627 0)
(1.0021176227793 -0.015582115785924 0)
(1.0025248256028 -0.016901969493383 0)
(1.0029715364192 -0.018186885182854 0)
(1.0034568031117 -0.019432687886454 0)
(1.0039816240583 -0.020653496186309 0)
(1.0045444181649 -0.021859435621602 0)
(1.005149640247 -0.023080573907223 0)
(1.0057931867412 -0.024317902398127 0)
(1.0064876810974 -0.02560352233365 0)
(1.0072178495563 -0.026904457644977 0)
(1.0080164461809 -0.028268931037137 0)
(1.0088348363163 -0.029612567546604 0)
(1.0097592336021 -0.031053902914654 0)
(1.0106541208005 -0.032407791169242 0)
(1.0117432496009 -0.033968270649619 0)
(1.0126763651943 -0.035296003623035 0)
(1.0140140140742 -0.037092263392785 0)
(1.0149013125017 -0.038281025743901 0)
(1.0166897144007 -0.040538341579602 0)
(1.0000012540874 -0.00072524285633808 0)
(1.0000325622263 -0.0021323917214575 0)
(1.0000905167699 -0.0035259733896367 0)
(1.0001758678585 -0.0049138283644763 0)
(1.0002892849261 -0.0063019722909609 0)
(1.0004317177557 -0.0076953828688023 0)
(1.0006042946835 -0.009096857140035 0)
(1.0008085244902 -0.010507543038564 0)
(1.0010459293692 -0.011926250613828 0)
(1.0013182568054 -0.013350366681564 0)
(1.0016269127524 -0.014772166083905 0)
(1.0019732278822 -0.016181276472976 0)
(1.0023577201913 -0.017562944396892 0)
(1.0027809191241 -0.018909621801287 0)
(1.0032423435752 -0.020217170569999 0)
(1.0037430148304 -0.021500009456367 0)
(1.0042819533809 -0.022769563867535 0)
(1.0048636929277 -0.024056683378907 0)
(1.0054847199043 -0.025363913158075 0)
(1.0061581677059 -0.026723301568203 0)
(1.0068687126291 -0.028102747831072 0)
(1.0076511414223 -0.029549620006707 0)
(1.0084543495786 -0.030979488881329 0)
(1.0093709372794 -0.032511388557471 0)
(1.0102561078632 -0.033957117650114 0)
(1.0113510700562 -0.035618111323131 0)
(1.0122794891122 -0.037039909904515 0)
(1.0136455288281 -0.038953554511878 0)
(1.0145309183026 -0.040229029322654 0)
(1.0163904353815 -0.042637570015377 0)
(1.0000012423248 -0.00074812623400176 0)
(1.0000298254494 -0.0021959789804986 0)
(1.0000823606348 -0.0036289124556041 0)
(1.0001594792445 -0.0050561522050071 0)
(1.0002618681529 -0.0064847702812696 0)
(1.0003905581562 -0.0079204412475485 0)
(1.0005468280086 -0.0093664217573807 0)
(1.0007323195202 -0.010824114450251 0)
(1.0009487575703 -0.012292419327198 0)
(1.0011980113856 -0.013768596464278 0)
(1.0014817377201 -0.015244619231042 0)
(1.0018013651353 -0.016709491943974 0)
(1.0021577606254 -0.018147861092009 0)
(1.0025515208321 -0.019551538431016 0)
(1.0029826426413 -0.020916511283628 0)
(1.0034521779941 -0.022257448435417 0)
(1.0039597449332 -0.02358717548442 0)
(1.0045099778316 -0.024937188077291 0)
(1.0050999247333 -0.026311800696189 0)
(1.0057432881552 -0.027742783043751 0)
(1.0064246698541 -0.029199376038429 0)
(1.0071809793146 -0.030727641821204 0)
(1.0079587246427 -0.032244017381404 0)
(1.0088568641249 -0.033866942566 0)
(1.0097218040622 -0.035407044374063 0)
(1.0108116024463 -0.037170593754606 0)
(1.0117255998281 -0.038691992630279 0)
(1.0131090199081 -0.040726403695889 0)
(1.013985422126 -0.042098056579105 0)
(1.0159053286831 -0.044661410989754 0)
(1.0000012198898 -0.00076779886594593 0)
(1.0000267131541 -0.0022499215345923 0)
(1.0000731431636 -0.0037157719773295 0)
(1.0001410094532 -0.0051759816635277 0)
(1.0002310000269 -0.0066386911630734 0)
(1.0003442050784 -0.0081102725352299 0)
(1.000482030258 -0.0095944485168135 0)
(1.000646227053 -0.011092885238912 0)
(1.0008387000286 -0.012604591668171 0)
(1.0010614179403 -0.0141267259461 0)
(1.0013162579559 -0.015651008118209 0)
(1.0016047284867 -0.01716587719592 0)
(1.0019280148722 -0.018655452808739 0)
(1.0022867875647 -0.020110961063576 0)
(1.0026814889314 -0.021528555465435 0)
(1.0031132365249 -0.022923153641357 0)
(1.0035821735943 -0.024308983433251 0)
(1.0040931054488 -0.025718176790755 0)
(1.0046435077738 -0.027156852057814 0)
(1.0052477920372 -0.028656566932755 0)
(1.0058903298355 -0.030188000941211 0)
(1.0066103268692 -0.031796027917383 0)
(1.0073519081675 -0.0333981901437 0)
(1.0082203231866 -0.03511212622059 0)
(1.0090538056789 -0.036748265819796 0)
(1.0101262161786 -0.038616005078242 0)
(1.0110150507787 -0.040242249013917 0)
(1.0124028727284 -0.042400085001517 0)
(1.0132623566903 -0.043879340750791 0)
(1.0152299715166 -0.046598760132648 0)
(1.0000011853122 -0.00078431542781632 0)
(1.0000232641801 -0.0022944223926904 0)
(1.0000629871389 -0.0037869092957877 0)
(1.0001207198382 -0.0052738184232531 0)
(1.0001971424379 -0.006764366251988 0)
(1.0002933830748 -0.0082656238373219 0)
(1.000410945988 -0.009781780399544 0)
(1.0005516637894 -0.011314759472188 0)
(1.0007175774361 -0.012863672801651 0)
(1.0009107200731 -0.014425581373742 0)
(1.001133140185 -0.01599198630222 0)
(1.0013864229852 -0.017550836074569 0)
(1.0016720320836 -0.019085801239185 0)
(1.0019907513381 -0.020587623090568 0)
(1.0023434030069 -0.022052627278294 0)
(1.0027312366886 -0.023496031125869 0)
(1.0031547613023 -0.024933334799363 0)
(1.0036190605797 -0.026397432080487 0)
(1.004121774153 -0.027895993929429 0)
(1.0046782458542 -0.029460856790224 0)
(1.005272311305 -0.031063578480888 0)
(1.0059457725694 -0.032749035752316 0)
(1.0066402376026 -0.034434617805837 0)
(1.007467238596 -0.036239142711387 0)
(1.0082575540959 -0.037971063611207 0)
(1.0092992842545 -0.039944530428083 0)
(1.0101517831536 -0.041679162875675 0)
(1.011527577268 -0.043962071903513 0)
(1.0123653978269 -0.045561688846375 0)
(1.0143533851803 -0.048431312595015 0)
(1.0000011365545 -0.00079779816118895 0)
(1.0000195407163 -0.0023298645863479 0)
(1.0000520677954 -0.0038429301602282 0)
(1.000098946871 -0.0053504265838587 0)
(1.0001608256026 -0.0068626613046228 0)
(1.0002388502361 -0.0083874202897184 0)
(1.0003346144706 -0.009929373261977 0)
(1.0004500250062 -0.011490710401857 0)
(1.0005872241039 -0.013070654217446 0)
(1.0007482598303 -0.014666166769672 0)
(1.000935266308 -0.016268543435808 0)
(1.001149880162 -0.017865274125224 0)
(1.0013937876942 -0.019439631008364 0)
(1.0016679342333 -0.020981941608856 0)
(1.0019734781568 -0.022488700620175 0)
(1.0023118713261 -0.023975480601254 0)
(1.0026838732485 -0.025458917747469 0)
(1.0030948382668 -0.026972857784945 0)
(1.003542440804 -0.028526142133761 0)
(1.00404283306 -0.030151623475156 0)
(1.0045794208111 -0.031820569368278 0)
(1.0051961836432 -0.033580082020005 0)
(1.0058330123209 -0.035344109161695 0)
(1.0066063744351 -0.037238094040239 0)
(1.0073421615214 -0.039060986890842 0)
(1.0083384314705 -0.041142483343592 0)
(1.0091446107359 -0.042981728042971 0)
(1.0104877985577 -0.04539329776342 0)
(1.0112994533001 -0.047115944132695 0)
(1.0132817408753 -0.050131205235926 0)
(1.0000010711019 -0.00080849534919822 0)
(1.0000156953632 -0.0023570359034566 0)
(1.0000407740136 -0.0038850585929119 0)
(1.0000763523708 -0.0054073444228404 0)
(1.0001229870292 -0.0069353273994199 0)
(1.0001818185765 -0.0084775029877729 0)
(1.0002545231694 -0.0100390300449 0)
(1.0003430599232 -0.011622362802494 0)
(1.0004496575974 -0.013226872384107 0)
(1.0005763716721 -0.014849481261371 0)
(1.0007253877263 -0.016481416316 0)
(1.0008984060647 -0.018109796453282 0)
(1.0010973270221 -0.019717618213301 0)
(1.0013232290083 -0.021294766739416 0)
(1.0015775619203 -0.022837854317309 0)
(1.0018618185275 -0.024362558662269 0)
(1.0021771638256 -0.025886587386789 0)
(1.0025286814373 -0.027444665934524 0)
(1.0029149252097 -0.029046887918647 0)
(1.0033512273906 -0.030727501759074 0)
(1.0038231925033 -0.032456988204535 0)
(1.004372678798 -0.034286415097822 0)
(1.0049442861336 -0.03612277830699 0)
(1.0056497457225 -0.038105269902284 0)
(1.006324105485 -0.040009851730667 0)
(1.0072548018526 -0.042206983522572 0)
(1.0080120437271 -0.044131494797828 0)
(1.0092935440631 -0.04670100824421 0)
(1.0100860997007 -0.04849807369621 0)
(1.01201969465 -0.051725745199517 0)
(1.0000009670502 -0.00081687154920428 0)
(1.000011898782 -0.0023775205551331 0)
(1.0000296081211 -0.0039159075457657 0)
(1.000053745535 -0.0054482358260926 0)
(1.0000847241542 -0.0069871514217874 0)
(1.0001236957112 -0.0085418051948697 0)
(1.0001724177029 -0.010117815290167 0)
(1.0002327990369 -0.011717947267493 0)
(1.0003072182011 -0.013341560871002 0)
(1.0003976590611 -0.014985472765085 0)
(1.0005063103896 -0.016640984277855 0)
(1.0006350115611 -0.018295076344598 0)
(1.0007860386644 -0.019930835123275 0)
(1.0009607369942 -0.021537807034849 0)
(1.001160820716 -0.02311316743833 0)
(1.0013873926908 -0.024672576953424 0)
(1.001642427645 -0.026234941848388 0)
(1.0019294142429 -0.027835070013197 0)
(1.0022496516856 -0.029485057339376 0)
(1.0026139421335 -0.031219410984993 0)
(1.0030163930671 -0.033010214232773 0)
(1.0034862686965 -0.034910239663971 0)
(1.0039894615312 -0.03682429893057 0)
(1.004606249466 -0.038901653622299 0)
(1.0052219067855 -0.040897046823589 0)
(1.0060492306095 -0.043231027778303 0)
(1.0067736359005 -0.045243111113338 0)
(1.0079287684081 -0.048041528718049 0)
(1.008769209867 -0.049880838871988 0)
(1.0105585219365 -0.053615220532338 0)
(1.0000007250559 -0.00082426571734171 0)
(1.0000075140265 -0.0023954711437859 0)
(1.000017868433 -0.0039434941865648 0)
(1.0000304311878 -0.0054860708464476 0)
(1.000045596295 -0.0070369580274982 0)
(1.0000647316671 -0.008605725055855 0)
(1.0000895739292 -0.010198382208685 0)
(1.0001222521813 -0.011817696784473 0)
(1.000164734779 -0.013463354843103 0)
(1.0002187115442 -0.015131853877156 0)
(1.0002860761941 -0.016814349480828 0)
(1.0003683411112 -0.018497512029936 0)
(1.0004678951988 -0.020164595886178 0)
(1.0005866230268 -0.021804834667417 0)
(1.0007274863295 -0.023416221909277 0)
(1.0008916594201 -0.025014855523251 0)
(1.0010818517776 -0.02662281409523 0)
(1.0012994482899 -0.028275052975621 0)
(1.0015488973515 -0.02998839162702 0)
(1.0018343804014 -0.031794014545298 0)