/*--------------------------------*- C++ -*----------------------------------*\
| =========                 |                                                 |
| \\      /  F ield         | OpenFOAM: The Open Source CFD Toolbox           |
|  \\    /   O peration     | Version:  2112                                  |
|   \\  /    A nd           | Website:  www.openfoam.com                      |
|    \\/     M anipulation  |                                                 |
\*---------------------------------------------------------------------------*/
FoamFile
{
    version     2.0;
    format      ascii;
    arch        "LSB;label=32;scalar=64";
    class       volScalarField;
    location    "14";
    object      p;
}
// * * * * * * * * * * * * * * * * * * * * * * * * * * * * * * * * * * * * * //

dimensions      [0 2 -2 0 0 0 0];

internalField   nonuniform List<scalar> 
22000
(
0.035037306553351
0.035015149848471
0.034969539482967
0.034899275917103
0.034803836361797
0.034683242641098
0.034537755914454
0.034367643347988
0.034173102874834
0.033954288090376
0.033711346515038
0.033444446493758
0.03315378567541
0.032839596181239
0.032502134528543
0.032141687633449
0.031758558764155
0.031353090568283
0.030925636020319
0.030476608282136
0.030006410285628
0.029515543847996
0.029004447540069
0.028473743018943
0.027923868077936
0.027355630125034
0.026769377949148
0.026166245816109
0.025546270816832
0.024911195964829
0.035450865978491
0.035427575164185
0.035380615573963
0.035308867598942
0.035211759204552
0.035089245649728
0.034941540838136
0.034768884887596
0.034571459806642
0.034349405729287
0.034102853248463
0.033831951478828
0.033536876630234
0.033217841278321
0.032875080766083
0.032508865336513
0.032119476860659
0.031707244911227
0.031272497615639
0.030815641275047
0.030337045993629
0.029837221201786
0.029316555728489
0.028775707584194
0.028215026366362
0.027635406470636
0.027037015570347
0.026421160245291
0.025787432942762
0.025137820390275
0.036208535016153
0.036184516425994
0.03613616774138
0.036062452888617
0.035962848823325
0.03583730586881
0.035686004276562
0.035509146932029
0.035306883655444
0.035079326379126
0.034826576067131
0.034548750970018
0.034245992056768
0.03391847749284
0.033566402903779
0.033190004528073
0.032789520960025
0.032365252852412
0.031917479201561
0.031446590381278
0.030952894596315
0.030436913871671
0.029898945387843
0.029339718697491
0.02875942491811
0.028159145439338
0.027538731770105
0.026899899073989
0.026241448682382
0.025566019419116
0.037259648138364
0.037234898233516
0.03718508233679
0.03710915394343
0.03700659109864
0.036877337519799
0.036721551883375
0.036539403754438
0.036331002890911
0.036096418966875
0.035835706787881
0.035548937101196
0.035236197546468
0.034897614088576
0.034533321893169
0.034143504140039
0.033728332192297
0.033288059646804
0.032822888822857
0.032333180644666
0.031819147288642
0.031281321655801
0.030719861345706
0.030135589417752
0.029528458832505
0.028899803845985
0.02824900100766
0.027578312923176
0.026885358881828
0.026173643411769
0.038559956816453
0.038534441467789
0.038483080479223
0.03840480208207
0.038299068938594
0.038165806428412
0.038005143140568
0.03781720600046
0.037602052187638
0.037359693640503
0.037090120539254
0.036793336322785
0.036469353258633
0.036118222939958
0.035739994691117
0.035334774617734
0.034902637628678
0.034443766159212
0.033958251960657
0.03344640584488
0.032908302603936
0.032344474984565
0.031754884423412
0.031140458633613
0.030500825539459
0.029837626161046
0.029149608065503
0.028439723837956
0.027704073414366
0.0269472902783
0.040070046524559
0.040043800296349
0.039990961499626
0.039910434649982
0.039801662627467
0.03966454168858
0.03949915597325
0.039305574057452
0.039083783659525
0.038833720726209
0.038555289998051
0.038248405046248
0.037912977295401
0.037548957758728
0.037156280114064
0.036734944531231
0.036284895075022
0.035806213112458
0.035298839882864
0.034763008429758
0.034198607913547
0.033606152180746
0.032985344018668
0.032337217286596
0.031660984160355
0.030958637515658
0.030228145405811
0.029473276770386
0.028688283097713
0.027879135705391
0.041754192813956
0.041727337500613
0.041673263641459
0.041590855134289
0.041479531409158
0.041339149011036
0.041169732515551
0.040971274977224
0.040743676141605
0.04048677617514
0.040200371994859
0.039884262840759
0.039538231410958
0.039162098891495
0.038755649921565
0.038318745618965
0.037851160085397
0.037352838152818
0.036823524703802
0.036263340224898
0.035671933220337
0.035049770515375
0.034396225813049
0.033712429931544
0.032997082154481
0.032252553952727
0.03147587816521
0.030671735724956
0.029832199437081
0.02896472258379
0.043579444968126
0.043552187367431
0.043497290679898
0.043413621137404
0.0433005709105
0.043157946906089
0.042985699855536
0.04278373042602
0.042551831614155
0.04228972737196
0.041997083530474
0.041673559340071
0.041318779322765
0.040932403451335
0.040514031285226
0.04006334831263
0.039579915585524
0.039063500829586
0.038513601329456
0.037930183120407
0.037312592065388
0.036661210500935
0.03597500539646
0.035255180453801
0.034499816955264
0.033711672323493
0.032886685454383
0.032030511293739
0.031132723437813
0.030202332029547
0.045515060803803
0.045487683639889
0.045432535396343
0.045348462536047
0.045234822931166
0.04509136479796
0.044917953313079
0.044714382165686
0.044480320145561
0.044215355077367
0.043918998622258
0.043590744249641
0.043230028477815
0.042836317815631
0.042408989492953
0.041947514732703
0.041451195966575
0.04091957935869
0.040351859251065
0.039747798906233
0.03910637397936
0.038427834541824
0.037710655842454
0.036956077009022
0.036161451436397
0.035329906546204
0.034456129770943
0.033546774511232
0.03258860713516
0.03159218235551
0.047532270848291
0.047505119334724
0.047450417737964
0.047366995827223
0.047254171731759
0.047111625156955
0.0469391240203
0.046736341777621
0.046502807551811
0.046237955340721
0.045941121768731
0.045611610570843
0.045248641972808
0.044851457554847
0.044419175454532
0.043951013539207
0.043445969497491
0.042903321282441
0.042321902967765
0.041701221804607
0.041039811978075
0.040337734874234
0.039592884959312
0.038806482340406
0.037975037975669
0.03710200916203
0.036180677198266
0.035218674915927
0.03419967731662
0.033135672142942
0.049604207720997
0.049577676804913
0.04952421626508
0.049442649263341
0.04933225368494
0.049192633124883
0.049023447763415
0.048824239732416
0.048594385886986
0.048333150756691
0.048039677048384
0.047713057692688
0.047352272279031
0.04695630934052
0.046523994319411
0.046054254189433
0.04554573756932
0.044997407115968
0.04440768002622
0.043775750890392
0.043099641028704
0.042379158227391
0.041611526125291
0.040797877556313
0.039933767197585
0.039022913260022
0.038057038234624
0.037044683742039
0.03596616825902
0.034834681331134
0.0517059403876
0.051680459122966
0.051629102180054
0.051550700966592
0.051444496886997
0.051310012236139
0.051146790948787
0.050954235141493
0.050731560776779
0.050477852822729
0.050192047166641
0.049873008509302
0.049519454779196
0.049130097297191
0.048703441144665
0.048238089041014
0.047732301488774
0.047184680079813
0.046593172909065
0.045956602684148
0.045272410855808
0.044540077626098
0.043756072620335
0.042921352225652
0.042030410664978
0.041087131730072
0.040081538778836
0.039022972351109
0.037888144739768
0.036691091920472
0.053814598497516
0.053790614407325
0.053742262755831
0.053668400054158
0.053568237330774
0.053441213888057
0.053286752686797
0.053104111098885
0.052892340057208
0.052650339656009
0.052376832045561
0.05207044369068
0.051729618027753
0.051352770009776
0.050938062743263
0.050483746421761
0.04998766351671
0.049448011648985
0.048862228155797
0.048228700226777
0.047544237986426
0.046807902492121
0.046015350234863
0.045167239101232
0.044256923284757
0.043288326899563
0.042249597821598
0.04115082740132
0.039964722093991
0.038705919983321
0.05590951904272
0.055887483081355
0.055843045622561
0.055775107714464
0.055682858938448
0.055565656660611
0.055422801978051
0.055253407660831
0.055056360866259
0.054830377668049
0.05457396624118
0.054285511918133
0.053963178766412
0.053605075964219
0.053209012397098
0.052772864219712
0.052294034760322
0.051770281791669
0.051198501121701
0.050576584834901
0.049900670132567
0.049169308690786
0.048377289401535
0.047524855132887
0.046604124378777
0.045618968985281
0.04455544776878
0.043424329382035
0.042194001159182
0.040879011430401
0.057972373528865
0.057952724402401
0.057913087651301
0.057852429105777
0.057769927279509
0.057664862109066
0.057536416205095
0.057383563002244
0.057205032911694
0.056999365511515
0.056764861720851
0.056499671277716
0.056201682039257
0.055868698340797
0.055498171594071
0.055087597171338
0.054633923679998
0.054134449932388
0.053585499078541
0.052984435345449
0.052326668198988
0.051610187301779
0.050828834932757
0.049982343087329
0.049061537606416
0.04807000066207
0.046991780151599
0.045837873047878
0.044572250479005
0.043208787055035
0.059987255024283
0.059970406151559
0.059936405979295
0.059884307110912
0.059813289421333
0.059722562051028
0.059611196389422
0.059478037033218
0.05932167052054
0.05914047401534
0.058932555303602
0.05869584236693
0.058427959167222
0.058126416173095
0.057788314795163
0.057410774725625
0.056990288073234
0.056523688709552
0.05600670791086
0.055436162221689
0.054806690807502
0.054115683690865
0.053355958313853
0.052526673488865
0.051617249430935
0.050630855483537
0.049549467872174
0.048383903844763
0.04709399026713
0.045691777002832
0.061940709999895
0.06192703710395
0.061899436155442
0.061857068149236
0.061799127475904
0.061724761859785
0.061632942351218
0.061522399701878
0.061391594932071
0.061238762986074
0.061061839699033
0.060858553198507
0.060626285128126
0.060362273230348
0.060063287705676
0.059726089574851
0.059346725932628
0.058921574226699
0.058445771560602
0.057915579638577
0.05732484390543
0.056670327555297
0.055943769622633
0.055143694910559
0.054258030502981
0.05328941519441
0.052217673303361
0.051053135090319
0.049751748240634
0.048321817587062
0.063821713714915
0.063811545300108
0.06379101278421
0.063759408853335
0.063715955896052
0.063659750333973
0.063589676798748
0.063504371446437
0.063402192889398
0.063281259292607
0.063139362109896
0.062974058510258
0.062782518083674
0.062561736470124
0.062308183222961
0.06201828938945
0.061687683019758
0.061312306260433
0.06088671825341
0.060406631995957
0.059865100490122
0.059258237815824
0.058576697309889
0.05781828208763
0.056969445223387
0.056031994520023
0.054983899289801
0.053834011681155
0.052535656139597
0.051091457994773
0.06562158794075
0.065615201258085
0.06560230182767
0.065582336175314
0.065554569240302
0.065518058516742
0.065471618753071
0.065413813753739
0.065342926505188
0.065256987786522
0.065153678142312
0.065030418431963
0.064884204391402
0.06471182745955
0.064509498686587
0.064273357287845
0.063998654832466
0.063680929526153
0.063314202145931
0.062893648250169
0.062411567877466
0.061863386776068
0.061238743338492
0.060534563791369
0.059736027072039
0.058843658751549
0.057833983788245
0.056713562910151
0.055433266589902
0.053990039949182
0.067333863232032
0.067331481441512
0.067326669535438
0.067319049975119
0.067307942353827
0.06729237558947
0.067271113674642
0.067242674067169
0.067205295731283
0.067156955004718
0.067095259032491
0.067017529714014
0.066920635116176
0.06680120595331
0.066655249522469
0.066478656461274
0.066266363152699
0.066013539441626
0.065713736292211
0.065361604244716
0.064948770739601
0.064469924148958
0.063913800211801
0.063276286073627
0.062541494152691
0.061708470030567
0.060752367194987
0.059677493714385
0.058431118552058
0.057004394953837
0.068954092221802
0.068955889971017
0.068959520108772
0.068964791772845
0.068971091612129
0.068977435022002
0.068982550097395
0.068984926602613
0.068982795393911
0.068974122052207
0.068956485823652
0.068927146152556
0.068882894274635
0.068820244497199
0.06873506868651
0.068623053141678
0.06847890486725
0.068297459583429
0.068071903088211
0.067796373068588
0.06746193924296
0.067062540291256
0.066586066796181
0.066027376016229
0.065369317726558
0.064609830357655
0.063722244743245
0.062709677248601
0.061515166706161
0.06012190559082
0.070479639606602
0.070485744647646
0.070498073432898
0.070516624236938
0.070540863973555
0.070569817153219
0.070602197953907
0.070636474352958
0.070670886580133
0.070703427702745
0.070731704944484
0.070752962727907
0.070763978297364
0.070761191499099
0.070740416775673
0.070697169900217
0.070626038393273
0.070521539507548
0.070376655733289
0.070184994575488
0.069937281809337
0.069626656127813
0.06924035114942
0.068772185594207
0.068203507678686
0.067531367597778
0.066725946769322
0.065791716435383
0.064665142267473
0.063327767271426
0.071909473515316
0.071919905660187
0.071941052058359
0.071973108378979
0.072015614180221
0.072067591889681
0.072127776563253
0.072194674502521
0.072266570834865
0.072341477541043
0.072417035824235
0.072490516771775
0.072558760995753
0.072618181917404
0.072664625621511
0.072693468194999
0.072699307158018
0.072676309502356
0.072617472075125
0.072515723371001
0.072361872325243
0.072147875873368
0.071861132291365
0.071493666300118
0.071026592119527
0.070454698768399
0.069744711434896
0.06890112998905
0.06784905710185
0.066589093519866
0.073244175956088
0.07325869596122
0.073288371515848
0.073333823869751
0.073394680762283
0.073469800514149
0.073557833831296
0.073657443742498
0.073767140999675
0.073884997501809
0.074008655900049
0.074135409027672
0.074262199012622
0.074385436815128
0.074501050918629
0.074604299816148
0.074689917946122
0.074751702826785
0.074782913589434
0.074775538234605
0.074721032112654
0.074609257373272
0.074429392998823
0.074169153784484
0.07381410556235
0.073350580100485
0.072753156574283
0.072007682889701
0.071037165127285
0.069826012804895
0.074486317912197
0.074504682645514
0.074541930955625
0.074599838825646
0.074678354361601
0.074776073509176
0.07489121839867
0.075022590082863
0.075169063475146
0.075328857357426
0.075499740773804
0.07567913153706
0.075864129220868
0.076051236600675
0.076236513948564
0.07641512237214
0.076581930804737
0.076730466559352
0.076854412120945
0.076944957147251
0.076994573174737
0.076990694652103
0.076925350247757
0.076779717911119
0.076548306520263
0.076200742069787
0.075739498897241
0.075107264136296
0.074284849455383
0.073058258025777
0.024300645694575
0.023717617404381
0.023123027520025
0.022518048022809
0.02190375944471
0.021281020575396
0.02065052677373
0.020012917673722
0.019368867664674
0.01871911684355
0.018064452378734
0.017405680866039
0.016743615401053
0.016079073784128
0.015412878405067
0.014745855274588
0.014078833431796
0.013412643318857
0.012748113900568
0.012086069935868
0.011427330136291
0.01077270764413
0.010123013553027
0.0094790645332418
0.0088416775326145
0.0082115377857945
0.0075891544851392
0.0069751892263768
0.0063703620223645
0.0057753583426822
0.0051907969437641
0.0046172338285723
0.004055174047849
0.003505084271115
0.0029673940399262
0.0024424972084763
0.0019307432030503
0.00143244343849
0.00094785821476803
0.0004772152176415
2.0680968208763e-05
-0.00042159499827071
-0.00084954639386914
-0.0012630902053089
-0.0016622780313792
-0.0020470690039697
-0.0024176778542393
-0.0027740618511838
-0.0031167569679119
-0.0034456956549874
0.024516151091326
0.023925022485321
0.023320664701263
0.02270557898722
0.022081394848602
0.021448916299489
0.020808541797166
0.020160638776807
0.019505754093901
0.018844616570846
0.018178036415164
0.017506833379673
0.016831823910357
0.016153830929464
0.015473690780647
0.014792255074561
0.014110389888375
0.013428972672342
0.012748887361169
0.012071019373041
0.011396250235723
0.010725449953755
0.010059463881603
0.0093990917679797
0.0087450782906405
0.0080982634137616
0.0074596497106502
0.0068300203638614
0.0062100456189689
0.0056003705383261
0.0050016312203446
0.004414444668729
0.0038393931810837
0.0032770186879817
0.0027278128449069
0.0021922240215896
0.0016706452945112
0.0011634323329434
0.00067087508622234
0.0001932401263543
-0.00026929388406906
-0.00071653781181464
-0.001148439806208
-0.0015648584803068
-0.0019659026611753
-0.0023514073166769
-0.0027217096388952
-0.0030764221687851
-0.0034161943728249
-0.003739680800067
0.024921496517289
0.024308169970888
0.02367785141479
0.023036056397762
0.022385793625565
0.021727922638043
0.021062360959294
0.020389034384118
0.019708331366049
0.019021041977825
0.018328089776734
0.017630369626188
0.016928736076485
0.016224039123108
0.015517145203693
0.014808943213293
0.014100344043516
0.013392275054873
0.012685671566091
0.011981469752292
0.011280601858448
0.010583993651087
0.0098925644373862
0.0092072330689227
0.0085289269952411
0.0078585486611861
0.0071969172820369
0.0065448405093206
0.0059030918808341
0.0052724086298164
0.0046534937139402
0.0040470166486183
0.003453602588584
0.0028738330360999
0.0023082328556748
0.0017572847313351
0.001221405287193
0.00070098040809541
0.00019631028253229
-0.000292306659795
-0.00076470122843733
-0.0012206387496325
-0.0016601138627754
-0.0020828965097078
-0.0024892164343634
-0.0028786979810626
-0.0032519396701612
-0.0036079609448075
-0.0039477466154689
-0.0042677146489981
0.025495285001845
0.024846688573744
0.024175804858195
0.023492959868029
0.022803222757586
0.022107426557003
0.021404691691343
0.020694260435797
0.019976285565047
0.019251647085548
0.018521423462878
0.017786596210223
0.017048045119432
0.016306626477157
0.015563216958332
0.014818726043815
0.014074095838824
0.013330292909481
0.012588296212066
0.011849088732763
0.011113653711576
0.010382972583809
0.0096580212780643
0.0089397635041452
0.0082291400338478
0.0075270665675664
0.0068344473497814
0.0061521518820098
0.0054810151306935
0.0048218375067716
0.0041753779232259
0.003542354997929
0.002923437071181
0.0023192506045961
0.0017303610393192
0.0011572970079522
0.00060050963445278
6.0432338758182e-05
-0.00046261203528421
-0.00096826975357723
-0.001456372153351
-0.0019266044502974
-0.0023790096364737
-0.0028132111234923
-0.0032295897701858
-0.0036274392745714
-0.0040076979360244
-0.004368447940961
-0.004711019789627
-0.0050281854160788
0.026226048262567
0.025530910095658
0.024806505355821
0.024069841310345
0.023328716869587
0.022583801856985
0.021833067167775
0.021074826328366
0.020308932315275
0.019536398715618
0.018758511968248
0.017976359437835
0.017190840376256
0.016402806452951
0.015613137069874
0.014822758806612
0.014032644462916
0.013243800359003
0.012457248959825
0.011674017835385
0.010895135413609
0.010121629043977
0.0093545212045015
0.0085948250039891
0.0078435393334344
0.0071016447291941
0.006370099719421
0.0056498350930525
0.0049417468361495
0.0042466949066705
0.003565495339579
0.00289892425385
0.0022477044933964
0.0016125195439631
0.00099398576010644
0.00039268946999087
-0.00019087411322839
-0.00075621043576776
-0.0013029660241994
-0.0018307144597964
-0.0023392838895777
-0.0028282532210216
-0.0032977209361265
-0.0037471145126116
-0.0041769974633057
-0.0045862219711045
-0.0049761460517357
-0.0053436125787262
-0.0056903929861224
-0.0060044335642189
0.027107384279464
0.026355404110533
0.025565220303363
0.024762607051991
0.023958816272662
0.023154186027617
0.022345154406497
0.021528859058758
0.020704805630092
0.019874203071338
0.019038610250664
0.018199245317092
0.017357024346365
0.01651278577533
0.015667407230111
0.014821832406983
0.013977066957785
0.013134159649446
0.012294178456479
0.011458196707297
0.010627289723792
0.009802534658208
0.0089850077296071
0.0081757800988843
0.0073759118310814
0.0065864436679028
0.0058083930862635
0.0050427516064377
0.0042904772656328
0.0035524937457141
0.002829680142943
0.0021228770044756
0.0014328685942907
0.00076040289358231
0.0001061539882441
-0.00052922567269085
-0.0011451901227027
-0.0017411733350426
-0.002316785146519
-0.0028715120144472
-0.0034051757935195
-0.0039172263965204
-0.0044078255021228
-0.0048761618869685
-0.0053230184631859
-0.0057467101757954
-0.0061491002871656
-0.0065255263186309
-0.0068782103962334
-0.0071891166883323
0.028136034122459
0.027317547441304
0.026449709421685
0.025569425572825
0.024692176549904
0.023817737839559
0.022940573199184
0.022056382291833
0.021164287381617
0.02026576922521
0.019362731120291
0.018456546740598
0.01754814337199
0.016638336458183
0.015727997764089
0.01481808900583
0.013909652274265
0.013003782696148
0.012101597060511
0.011204217475884
0.010312769344079
0.0094283831327504
0.0085521920346942
0.0076853272037021
0.0068289104833859
0.0059840460188208
0.0051518177943504
0.0043332850173534
0.0035294740723283
0.0027413787756941
0.0019699482368185
0.0012160950662217
0.00048067311563167
-0.00023549586955856
-0.00093167079421018
-0.0016071224047496
-0.0022612441775519
-0.0028933854704562
-0.0035031098741202
-0.0040898002318019
-0.0046532649209045
-0.0051928021208377
-0.0057086383693489
-0.0061996832842087
-0.0066669686441414
-0.0071081722591023
-0.0075257568055639
-0.0079132329877623
-0.0082733581116166
-0.0085806626411272
0.029311494468994
0.02841734588647
0.027460194074227
0.026490774463126
0.025529630089942
0.024575664639516
0.02362085523117
0.022659183903939
0.021689369195305
0.020713258245382
0.019733177813838
0.018750681328828
0.017766699578864
0.016782013891721
0.015797487148636
0.014814102747356
0.013832945172567
0.012855162042928
0.011881924271741
0.010914407068816
0.0099537900821434
0.009001261554955
0.008058016512303
0.0071252515875106
0.0062041570689748
0.0052959080086814
0.0044016622218257
0.0035225546435214
0.0026596885019354
0.0018141365551274
0.00098692697066605
0.00017905423410767
-0.0006085476986235
-0.0013749722099512
-0.0021193998457114
-0.0028410117253248
-0.0035391289559081
-0.0042130015032552
-0.0048621362145715
-0.0054857929238607
-0.0060837610908607
-0.0066551573991308
-0.0072002804577429
-0.0077177068652084
-0.0082087510352639
-0.0086703376827523
-0.0091056032450389
-0.0095059062088175
-0.0098745424280686
-0.010177179769537
0.03063523807071
0.029656679427307
0.028598637659131
0.027528760155601
0.026473544634314
0.025430615639132
0.02438886850414
0.023340273604424
0.022283148758562
0.021219824916742
0.020153140309315
0.019084850593755
0.018015878324961
0.016946959262835
0.01587894649063
0.014812851291741
0.01374980925316
0.012691028300356
0.011637739758115
0.010591177697983
0.0095525819695689
0.0085232051508766
0.0075043114180576
0.0064971708369961
0.0055030506365047
0.0045232052781898
0.0035588752218415
0.0026112807556333
0.0016816120483735
0.0007710313725559
-0.00011934268480076
-0.00098842174755826
-0.0018351795698657
-0.0026586112039537
-0.0034578053411266
-0.0042318389607583
-0.0049799467781555
-0.0057012629469725
-0.0063952233416782
-0.0070609458264044
-0.0076981890589738
-0.0083058621487623
-0.0088843339428229
-0.0094318022371317
-0.0099498898604937
-0.010434667966123
-0.010890021957368
-0.011304855240457
-0.011683000732059
-0.011979736854637
0.032109991555399
0.03103863307935
0.029868141377855
0.028686575221661
0.027527331569004
0.026386238036742
0.025248427120232
0.02410355280712
0.022949563990512
0.021789417227946
0.020626555568529
0.019462955324655
0.018299515627213
0.017136914107789
0.015975995191616
0.014817808053018
0.013663550832238
0.012514501710938
0.011371960551421
0.010237227333711
0.0091116095432444
0.0079964324760928
0.006893038568285
0.005802780832623
0.0047270133118734
0.0036670801306957
0.0026243152907921
0.001600035847317
0.00059553130913826
-0.0003879332680958
-0.0013491352378651
-0.0022868779583946
-0.0032000274584063
-0.0040874645996085
-0.004948170041337
-0.0057810986767921
-0.0065853817058263
-0.0073600178045921
-0.0081043552859803
-0.0088173468006342
-0.0094987063375323
-0.010147104871841
-0.010762976802977
-0.011344092829669
-0.011892403861477
-0.012403031715145
-0.012880669133574
-0.013311483994126
-0.013699780727728
-0.013988911620378
0.033739020347831
0.032566825406896
0.031272374054332
0.029968045788372
0.028695086849389
0.027446870605566
0.026204007742786
0.024953547190346
0.02369314640152
0.022426554536372
0.021157913970359
0.019889431599871
0.018621961329417
0.017356110317618
0.016092719004026
0.014832887794183
0.013577891821962
0.012329091047256
0.011087862814796
0.0098555816550331
0.0086336320829874
0.0074234224482746
0.006226384601886
0.005043966106674
0.0038776198451797
0.0027287918651603
0.0015989227366159
0.00048944045468901
-0.00059825141329564
-0.0016627695569736
-0.0027027705975028
-0.0037169318230243
-0.0047039935745789
-0.0056627029140252
-0.0065919119595398
-0.007490432950935
-0.0083572718833771
-0.0091912695820063
-0.0099916645272989
-0.010757219204892
-0.01148758335172
-0.012181157444599
-0.012838431787754
-0.013456697631876
-0.01403824817919
-0.014577148104912
-0.015078946139107
-0.01552676956563
-0.015925306729098
-0.016204390409544
0.035525658287767
0.034244862368977
0.032814962754631
0.031377038045007
0.029981077120873
0.028617123649965
0.027260406149369
0.025895118467335
0.024518776752513
0.023136122354814
0.021752085215732
0.020369099673714
0.018987948757621
0.017609158803112
0.016233575717878
0.014862369829693
0.01349691033418
0.012138651709554
0.010789059115154
0.0094495915698084
0.0081217218419693
0.0068069539646966
0.0055068225780758
0.0042228835647409
0.002956702878799
0.0017098429937118
0.00048386634265881
-0.00071967192115524
-0.0018992367455336
-0.0030533072788919
-0.0041803999092927
-0.0052790445472941
-0.0063478335143895
-0.0073853562219492
-0.0083903126595427
-0.0093613458807435
-0.010297310224692
-0.011196861835677
-0.012059101038149
-0.012882572392375
-0.013666833244329
-0.014409981907656
-0.015112543590126
-0.015771284169074
-0.016388838759902
-0.016958127808633
-0.017485585734358
-0.017951034626011
-0.018359432810386
-0.018625502054975
0.0374727194876
0.036076071894499
0.034499337659556
0.032917226558916
0.031389403078405
0.029901489231638
0.028422341624294
0.026933089070669
0.025431341266992
0.023923063913124
0.022414049541363
0.020906936533782
0.019402403538297
0.017900891081659
0.016403268605097
0.014910800205973
0.013424969096567
0.011947338075712
0.010479470930077
0.009022923158255
0.0075792699310023
0.006150126562596
0.0047371469279889
0.0033420118942144
0.0019664171571726
0.00061205774757917
-0.00071936474602767
-0.0020261484405003
-0.003306606471335
-0.0045590584819703
-0.0057818571137435
-0.0069733584814343
-0.0081319815185668
-0.0092561281530657
-0.010344317285906
-0.011394990379461
-0.012406819033644
-0.013378239919153
-0.014308180019777
-0.01519493295692
-0.016037924698353
-0.016834919597279
-0.017586440722649
-0.018288691029245
-0.018944625922071
-0.019545962908982
-0.020100021713463
-0.020583142379203
-0.021000381336067
-0.021249864477131
0.039581578684517
0.038062475956472
0.036328069424253
0.034591805869641
0.032923842674278
0.031304163153155
0.02969425438128
0.028072045563582
0.02643554621788
0.024792199227132
0.02314871606558
0.021507893945954
0.019870268603344
0.018236196081916
0.016606596385164
0.014982857912178
0.013366599241758
0.011759505085904
0.01016324980235
0.0085794989425342
0.0070099463959197
0.0054563375252423
0.0039204659494095
0.0024041591752912
0.00090926443854175
-0.0005623743465596
-0.002008900198659
-0.003428443014998
-0.004819139051552
-0.0061791199681487
-0.0075065479513519
-0.0087995746892307
-0.010056414895818
-0.011275246453671
-0.01245437471203
-0.013591996912513
-0.01468656584368
-0.015736253368556
-0.016739772508577
-0.017695121888514
-0.018601546356609
-0.019456441211744
-0.020260267551346
-0.021008638630835
-0.021704772271243
-0.022339153428767
-0.022919937038979
-0.023419871397732
-0.023843869201546
-0.02407213162133
0.041852458737073
0.040204648201406
0.038302220672451
0.036402786754715
0.034587300777621
0.032828591309036
0.031079886574068
0.02931596377449
0.027535607046283
0.02574797183166
0.023960711507496
0.0221767188545
0.020396348126818
0.018619884571853
0.016848338308433
0.015083257263595
0.013326417778501
0.011579640069668
0.0098447213239284
0.008123452720601
0.0064176660751912
0.0047292586283161
0.003060188631995
0.0014124580275833
-0.0002118996666841
-0.0018108786166803
-0.0033824546961499
-0.0049245669040745
-0.0064351465093294
-0.0079121019957013
-0.0093533706693458
-0.010756860913552
-0.01212055047815
-0.013442348107148
-0.014720307406902
-0.015952327889041
-0.017136604773788
-0.018270982017921
-0.019353916955201
-0.020383047739932
-0.021357385841758
-0.022273905854056
-0.023132927691097
-0.023929456296252
-0.024666853682847
-0.025334383928306
-0.025940880285349
-0.02645548214803
-0.026882587893378
-0.027083416675244
0.044283260894261
0.042501139981716
0.040421367480731
0.038350976339699
0.036381630729413
0.034477307319174
0.03258216280169
0.03066806148899
0.028735055053353
0.026794239899425
0.024854177454497
0.02291776052919
0.020985128696826
0.019056527723736
0.017133108977006
0.015216619942118
0.013309016329008
0.011412267260611
0.0095283066084118
0.0076590670820195
0.0058065355171351
0.0039727819946734
0.0021599675411946
0.00037032063847426
-0.0013938612298681
-0.0031304764863414
-0.0048373172013651
-0.0065120793732487
-0.0081524540986592
-0.0097560913714154
-0.011320667016724
-0.012843797621442
-0.014323182345482
-0.015756405094892
-0.017141228662993
-0.018475183803652
-0.019756168275788
-0.020981610418071
-0.022149675870998
-0.023257538214498
-0.024303937680465
-0.025285330864009
-0.026201827729811
-0.027047785380291
-0.027826553000262
-0.028526238756372
-0.029156067787533
-0.02968172125069
-0.030106587567182
-0.03027229202803
0.046869555596548
0.044948811695556
0.042683651549304
0.040435782690238
0.038307299633482
0.036251526789248
0.034202827679138
0.032130547995489
0.030036569695554
0.027934133116562
0.025832624718301
0.023734821037746
0.021640626417948
0.019550303762437
0.017465212470516
0.015387339201377
0.013318839005469
0.011261845618284
0.0092184483616043
0.0071907398525579
0.005180865887696
0.0031910480252344
0.0012236284677321
-0.00071878982524792
-0.0026330248540143
-0.004517694984165
-0.0063702649875168
-0.0081880318764742
-0.0099683699479136
-0.011708630605882
-0.013406197883424
-0.015058348978871
-0.016662456657283
-0.018215711346857
-0.019715536994306
-0.021159008710693