/*--------------------------------*- C++ -*----------------------------------*\
| =========                 |                                                 |
| \\      /  F ield         | OpenFOAM: The Open Source CFD Toolbox           |
|  \\    /   O peration     | Version:  2112                                  |
|   \\  /    A nd           | Website:  www.openfoam.com                      |
|    \\/     M anipulation  |                                                 |
\*---------------------------------------------------------------------------*/
FoamFile
{
    version     2.0;
    format      ascii;
    arch        "LSB;label=32;scalar=64";
    class       surfaceScalarField;
    location    "14";
    object      phi;
}
// * * * * * * * * * * * * * * * * * * * * * * * * * * * * * * * * * * * * * //

dimensions      [0 3 -1 0 0 0 0];

oriented        oriented;

internalField   nonuniform List<scalar> 
43645
(
0.39512384365401
-4.9705653343431e-06
0.39513868400329
-1.4840319617169e-05
0.39516335270809
-2.4668672683049e-05
0.39519788246755
-3.4529726285578e-05
0.39524230902339
-4.4426522540867e-05
0.39529663266785
-5.4323611522089e-05
0.39536079903297
-6.416633284043e-05
0.39543470869107
-7.3909626578016e-05
0.39551823794693
-8.3529225204894e-05
0.39561126263947
-9.3024662721976e-05
0.39571366573264
-0.00010240306424128
0.39582534538175
-0.00011167962102998
0.3959462001043
-0.00012085469534774
0.39607613433794
-0.00012993420723013
0.39621502737755
-0.00013889301400821
0.39636275978047
-0.00014773237803514
0.39651915929306
-0.00015639948842022
0.39668407777136
-0.00016491845470785
0.39685727686355
-0.00017319906918409
0.39703860899234
-0.00018133210621048
0.39722775049659
-0.00018914148210507
0.39742461278076
-0.00019686226229463
0.39762871925807
-0.000204106455687
0.3978401502797
-0.00021143100013537
0.39805810422255
-0.00021795392145294
0.39828308141724
-0.0002249771732639
0.39851356478658
-0.00023048334788714
0.39875106353491
-0.00023749872700363
0.39899245027987
-0.00024138672393124
-0.00024909915109428
0.39924154945248
0.37294717312018
-9.5888994791637e-06
0.37296103751716
-2.8704667672678e-05
0.37298428630849
-4.7917414180033e-05
0.37301694871997
-6.7192087999781e-05
0.37305905672726
-8.6534480744865e-05
0.37311061347526
-0.00010588031134107
0.3731715751708
-0.00012512798129009
0.37324185885055
-0.00014419326033766
0.37332136028286
-0.00016303061269317
0.37340997522993
-0.00018163956610628
0.37350760554583
-0.00020003333765549
0.37361416674261
-0.00021824077643443
0.37372957350296
-0.0002362614154867
0.37385374599471
-0.00025410665981203
0.37398657981498
-0.00027172679618842
0.37412797290774
-0.00028912543361632
0.37427777186432
-0.00030619840873508
0.37443584810205
-0.00032299465691837
0.37460198363765
-0.00033933456998304
0.3747760504765
-0.00035539891080016
0.37495774555691
-0.00037083652878042
0.37514699886669
-0.00038611553865483
0.3753433565072
-0.00040046406308834
0.37554691640005
-0.00041499085999078
0.37575690621731
-0.00042794370583566
0.37597383982977
-0.00044191075279009
0.37619624528434
-0.00045288876947814
0.3764256331659
-0.00046688657582642
0.37665896314749
-0.00047471667372031
-0.00049019327616536
0.3769000573054
0.35201540016634
-1.4091493249287e-05
0.35202886789468
-4.2172345357936e-05
0.35205134477101
-7.0394239685243e-05
0.35208287697025
-9.872423700565e-05
0.35212350179256
-0.00012715925388389
0.35217322592531
-0.00015560439609801
0.35223201626344
-0.00018391827276042
0.3522998098373
-0.00021198678882609
0.35237652847442
-0.00023974920583467
0.352462095981
-0.00026720703000517
0.35255644064668
-0.00029437796203997
0.35265950216851
-0.00032130225823613
0.35277121657339
-0.00034797578165488
0.35289152536698
-0.00037441541584714
0.3530203449046
-0.00040054629744917
0.35315759778019
-0.00042637827380385
0.3533031542714
-0.00045175486553161
0.35345691542338
-0.00047675577522432
0.35361868610197
-0.00050110521562969
0.35378837083956
-0.00052508361592634
0.35396568211608
-0.00054814777329966
0.35415058846646
-0.00057102185723426
0.35434263830781
-0.0005925138728561
0.35454198584509
-0.00061433836563262
0.35474783294594
-0.00063379077503875
0.35496078730176
-0.00065486507667839
0.35517928164397
-0.00067138307954373
0.35540499734025
-0.00069260223997498
0.35563463790845
-0.00070435721061888
-0.00072789966678943
0.35587234433175
0.3322584091997
-1.8456690438944e-05
0.33227146152639
-5.5224626667976e-05
0.33229323960067
-9.2172268388101e-05
0.33232378923699
-0.00012927382822235
0.33236314493666
-0.00016651490935878
0.33241131607668
-0.00020377549293187
0.33246828297162
-0.00024088512567337
0.33253400730064
-0.00027771107693611
0.33260844272845
-0.00031418459395727
0.33269154760345
-0.00035031186646056
0.33278328310418
-0.00038611342546584
0.33288361944318
-0.00042163856105845
0.33299251960091
-0.00045687590439058
0.33310995226508
-0.00049184804604771
0.33323585987383
-0.00052645387329442
0.33337019645861
-0.00056071482653721
0.33351286174289
-0.00059442011865008
0.33366379474432
-0.00062768874614687
0.33382282800731
-0.00066013844876994
0.3339899082223
-0.00069216380148917
0.3341647647551
-0.00072300427710605
0.33434741725546
-0.00075367432877942
0.33453741140264
-0.00078250799143364
0.33473497883481
-0.0008119057691631
0.33493927821293
-0.00083809012452847
0.33515105313328
-0.00086663996817644
0.3353685989814
-0.00088892889866744
0.33559386210701
-0.00091786533665036
0.33582320263109
-0.00093369770659949
-0.00096602248057915
0.33606132547429
0.313610286381
-2.2685653504812e-05
0.31362292842869
-6.7866634021255e-05
0.31364402867805
-0.0001132724774187
0.31367363873471
-0.00015888384510987
0.31371179061277
-0.00020466674860389
0.31375849629226
-0.00025048113462366
0.31381375167035
-0.00029614046711948
0.3138775475914
-0.00034150696246399
0.31394987541748
-0.00038651238572867
0.31403073445936
-0.00043117087514904
0.31412012508442
-0.00047550401856437
0.31421805427989
-0.00051956772562908
0.31432451789672
-0.00056333949147936
0.3144395181569
-0.00060684827742993
0.31456302975296
-0.00064996544156039
0.31469504559346
-0.00069273064001293
0.3148355015931
-0.00073487609206192
0.31498438357087
-0.00077657069823775
0.31514155800242
-0.00081731285519767
0.31530702390639
-0.0008576296806292
0.31548053160446
-0.00089651195065783
0.31566216495056
-0.00093530765041981
0.31585146670912
-0.00097180972562232
0.31604876617675
-0.0010092052122376
0.31625316929979
-0.0010424932228973
0.3164655907258
-0.001079061369146
0.31668415601285
-0.0011074941604007
0.31691114006691
-0.0011448493652863
0.31714247047024
-0.0011650280850992
-0.0012070855939467
0.3173835336099
0.29600878638874
-2.6770147475478e-05
0.29602099360231
-8.007381071361e-05
0.29604137591826
-0.00013365475654372
0.29606999377754
-0.0001875016680771
0.29610687845675
-0.00024155139234182
0.29615204611143
-0.00029564875471083
0.29620551084288
-0.00034960516498323
0.29626729682085
-0.00040329290779017
0.29633743840533
-0.00045665393863904
0.2964159817767
-0.00050971421591753
0.2965029724056
-0.00056249461794116
0.29659845998172
-0.00061505527315512
0.29670247893878
-0.00066735842097745
0.29681507117867
-0.0007194404906004
0.29693624981584
-0.00077114405291785
0.29706605398294
-0.00082253478198858
0.29720446285498
-0.00087328493972124
0.2973515179507
-0.00092362577007315
0.29750712689023
-0.00097292177139007
0.2976713513677
-0.001021854135051
0.29784396863838
-0.0010691291986268
0.29802513942317
-0.0011164784125994
0.29821440651209
-0.0011610767920792
0.29841221447575
-0.0012070131533468
0.2986176123455
-0.0012478910700808
0.29883171302907
-0.0012931620299043
0.29905245111358
-0.0013282322219604
0.29928247730578
-0.0013748755345476
0.29951723021784
-0.0013997809748817
-0.0014527210879494
0.29976286573548
0.27939515514767
-3.0690744889804e-05
0.27940686973811
-9.1788369137971e-05
0.27942643986012
-0.00015322484666705
0.27945393648923
-0.00021499826581491
0.27948939129677
-0.00027700616929618
0.27953282609272
-0.00033908352086612
0.27958427559843
-0.0004010546418306
0.27964380083071
-0.000462818112059
0.27971148348775
-0.00052433656864355
0.27978742146541
-0.00058565216740365
0.27987171031574
-0.00064678344307706
0.27996444757871
-0.00070779251175781
0.28006571144746
-0.00076862226628711
0.28017558919864
-0.00082931821906773
0.280294138316
-0.00088969314836616
0.2804214511954
-0.00094984764007579
0.28055755739888
-0.0010093911225317
0.28070256282996
-0.0010686311808951
0.28085642407531
-0.0011267829969421
0.28101927572793
-0.001184705768079
0.28119092952125
-0.0012407829726354
0.28137163529484
-0.0012971841668946
0.28156094197415
-0.0013503834521899
0.28175942521201
-0.00140549637186
0.28196607933519
-0.0014545451738426
0.28218223798846
-0.0015093206634768
0.2824056379469
-0.0015516321605172
0.28263934103353
-0.0016085786012301
0.28287827119277
-0.001638711114699
-0.0017038663042176
0.28312941642985
0.263713938623
-3.441989090091e-05
0.26372507887786
-0.00010292859547688
0.26374370433263
-0.00017185027303394
0.26376989741444
-0.00024119131963108
0.26380369054295
-0.000310799270458
0.26384511202346
-0.00038050497465924
0.26389421893377
-0.00045016152616359
0.26395111175413
-0.00051971090711686
0.26401592275014
-0.00058914754015126
0.26408880515455
-0.00065853454800768
0.26416990842829
-0.00072788669381186
0.26425938205335
-0.00079726611449752
0.26435735232552
-0.00086659251692115
0.26446395680467
-0.00093592267729528
0.26457930273574
-0.0010050390592085
0.26470354212649
-0.0010740870111125
0.26483676174948
-0.0011426107264011
0.26497913995149
-0.0012110093641485
0.26513069037704
-0.0012783334041884
0.26529163022965
-0.0013456456026168
0.26546181464278
-0.001410967367992
0.26564159403126
-0.0014769635376935
0.26583053271185
-0.0015393221152711
0.26602935120983
-0.0016043148523003
0.26623699802685
-0.0016621919733737
0.26645504434915
-0.0017273669681534
0.2666810360337
-0.0017776238274399
0.26691846635616
-0.0018460089061389
0.26716174721681
-0.0018819919583711
-0.001960842044745
0.26741872297551
0.24891279882104
-3.7925998867724e-05
0.24892326681942
-0.00011339656947128
0.2489407919618
-0.00018937539115625
0.24896546738419
-0.00026586671810761
0.24899732592529
-0.00034265778817041
0.24903640250994
-0.00041958153643448
0.24908277727562
-0.00049653626958825
0.24913659146996
-0.0005735250797374
0.24919802971619
-0.00065058576530895
0.24926730272303
-0.00072780753432824
0.24934461633783
-0.00080520028876953
0.24943017476405
-0.00088282452140148
0.2495241556284
-0.00096057336260652
0.24962675050326
-0.0010385175339843
0.24973812085191
-0.0011164093902678
0.24985848345447
-0.0011944495964917
0.24998798839451
-0.0012721156497403
0.25012689331838
-0.0013499142716181
0.25027527687249
-0.001426716942281
0.25043344742721
-0.0015038161414882
0.25060131348006
-0.0015788334052481
0.25077933599374
-0.0016549860358413
0.25096710703206
-0.0017270931382128
0.25116550246204
-0.0018027102668542
0.25137344034069
-0.0018701298366538
0.25159273860006
-0.0019466652120324
0.25182077327916
-0.0020056584910577
0.25206147214255
-0.0020867077541361
0.25230876980603
-0.0021292896069682
-0.0022234228830593
0.25257135066036
0.23494233854565
-4.1176964346225e-05
0.23495203240861
-0.00012309041111969
0.23496829433093
-0.00020563729223853
0.23499122627931
-0.00028879864550035
0.23502086098155
-0.00037229246982476
0.23505724007653
-0.0004559606111735
0.2351004670632
-0.00053976323648828
0.23515072403351
-0.0006237820306393
0.23520824803919
-0.00070810975207617
0.23527330743836
-0.0007928669149883
0.23534616515508
-0.00087805798748298
0.23542708112966
-0.00096374047837912
0.23551628616713
-0.0010497783829789
0.23561402799909
-0.0011362593492241
0.23572052557795
-0.0012229069528875
0.23583606385346
-0.0013099878560843
0.23596086129093
-0.0013969130717068
0.23609525972163
-0.001484312687078
0.2362394102454
-0.0015708674511541
0.23639371883343
-0.001658124714799
0.23655815808122
-0.0017432726385902
0.23673330671051
-0.0018301346507817
0.2369188001066
-0.0019125865201598
0.2371156755064
-0.0019995856525328
0.23732284341315
-0.0020772977294373
0.23754236882193
-0.002166190606842
0.23777149305647
-0.0022347827117434
0.23801456170553
-0.002329776389541
0.23826509854949
-0.0023798264378051
-0.0024908929739384
0.23853256865444
0.22175593424202
-4.4141399137915e-05
0.22176475959313
-0.00013191574397908
0.22177960276373
-0.00022048044464413
0.22180057360531
-0.00030976946904352
0.22182770398697
-0.00039942283375152
0.2218610415181
-0.00048929812480691
0.22190071221231
-0.00057943391352638
0.22194693800598
-0.00067000780738071
0.22200000746255
-0.00076117919208104
0.22206024531704
-0.00085310475317212
0.22212797049229
-0.00094578314680936
0.22220349758103
-0.0010392675514527
0.22228711075335
-0.0011333915400281
0.22237911385001
-0.0012282624308649
0.22247978529591
-0.0013235783841359
0.22258947906141
-0.0014196816071658
0.222708486204
-0.0015159202002311
0.22283723437964
-0.0016130608488225
0.22297595462429
-0.0017095876822159
0.22312515285638
-0.0018073229334205
0.22328487819826
-0.0019029979672637
0.22345582861497
-0.0020010850543583
0.22363770328719
-0.0020944611794463
0.22383169774586
-0.0021935800983096
0.22403674830889
-0.0022823482797354
0.22425515626432
-0.0023845985495671
0.2244840806612
-0.0024637070960722
0.22472825184162
-0.0025739475576315
0.22498087938784
-0.0026324539722122
-0.0027621031770484
0.22525208960365
0.20930958214602
-4.6791580165808e-05
0.20931745688532
-0.00013979046736268
0.20933074355421
-0.00023376709762081
0.20934955875435
-0.0003285846533438
0.20937393268899
-0.00042379675276026
0.20940391789172
-0.00051928331202234
0.20943966122252
-0.00061517722902564
0.20948142182154
-0.00071176839122758
0.20952953665142
-0.0008092940070262
0.20958438348089
-0.00090795156783665
0.20964633494907
-0.0010077346004498
0.20971575759477
-0.0011086901827545
0.20979298750683
-0.0012106214379757
0.20987838221329
-0.0013136571233734
0.20997228024206
-0.0014174763992455
0.2100751021269
-0.0015225034784858
0.21018721530878
-0.001628033368885
0.21030912998366
-0.0017349755106117
0.21044116628506
-0.0018416239707988
0.21058392493013
-0.0019500815657903
0.21073754958388
-0.0020566226085546
0.21090284675884
-0.0021663822169706
0.21107961305111
-0.0022712274595895
0.21126917589107
-0.002383142926233
0.21147055759893
-0.0024837299757655
0.21168624523603
-0.0026002861749232
0.21191340644785
-0.0026908682963735
0.21215708911605
-0.0028176302145735
0.21241033331491
-0.0028856981603504
-0.00303555344797
0.21268378359734
0.19756175006629
-4.9105103417928e-05
0.197568608297
-0.00014664868418481
0.19758022645271
-0.00024538523938309
0.19759672632531
-0.0003450845120286
0.1976181354388
-0.00044520585244431
0.19764450975825
-0.0005456576177226
0.19767601439153
-0.00064668184866264
0.19771294188363
-0.00074869586973538
0.19775567305768
-0.00085202516761484
0.1978046337599
-0.00095691225663215
0.19786024547558
-0.0010633463028708
0.19792292223062
-0.0011713669245985
0.19799304895205
-0.0012807481463822
0.19807103298454
-0.0013916411429196
0.19815727095454
-0.0015037143565053
0.19825224569875
-0.0016174782100442
0.19835640219861
-0.0017321898563162
0.19847032664744
-0.0018488999471067
0.19859443737164
-0.0019657346828971
0.19872941625257
-0.0020850604347245
0.19887552843369
-0.002202734777904
0.19903365594284
-0.0023245097144638
0.19920375872594
-0.0024413302312617
0.19938721191585
-0.0025665961048247
0.19958327356943
-0.0026797916182471
0.19979443575934
-0.0028114483538604
0.20001811185311
-0.0029145443794031
0.20025947007999
-0.003058988431014
0.20051154768974
-0.0031377757601571
-0.0033093846063157
0.20078537885877
0.1864732382195
-5.1065941327855e-05
0.18647903318926
-0.0001524436415178
0.18648890209364
-0.00025525413125498
0.18650296994889
-0.00035915235473662
0.1865212603303
-0.0004634962213768
0.18654383083116
-0.00056822810608139
0.1865708615023
-0.00067371250736886
0.18660267348468
-0.00078050783965903
0.18663968545026
-0.00088903712080241
0.18668236501082
-0.00099959180477948
0.18673117599389
-0.001112157273613
0.18678657412233
-0.0012267650406943
0.18684898698634
-0.0013431609981533
0.18691886746341
-0.0014615216077647
0.18699666464031
-0.0015815115213145
0.18708292019216
-0.0017037337498415
0.18717815017719
-0.0018274198294662
0.18728301570816
-0.0019537654662622
0.18739802696759
-0.0020807459307237
0.18752394964915
-0.0022109831047946
0.18766116554563
-0.0023399506631241
0.18781063975156
-0.002473983909273
0.18797249175361
-0.0026031822224486
0.18814815640799
-0.0027422607484902
0.18833713998705
-0.0028687751868377
0.18854190067311
-0.0030162090296244
0.18876026427356
-0.0031329079698168
0.18899722586511
-0.0032959500128405
0.18924628571043
-0.0033868355962183
-0.0035815824079722
0.18951848352205
0.17600704791473
-5.266508555829e-05
0.17601175383885
-0.00015714955430531
0.17601982710853
-0.0002633273894788
0.17603139382832
-0.00037071906301966
0.1760464723127
-0.00047857469427881
0.17606511971621
-0.00058687549808467
0.17608752720551
-0.00069611998519645
0.17611403885649
-0.00080701947912169
0.17614510416649
-0.00092010241932843
0.17618122496846
-0.0010357125952182
0.17622289971941
-0.0011538320130794
0.17627061859102
-0.0012744839007625
0.17632484453453
-0.0013973869301741
0.17638606934679
-0.0015227464084912
0.17645478702933
-0.0016502291923903
0.17653159286822
-0.001780539577278
0.17661706501439
-0.0019128919642959
0.17671193656582
-0.0020486370064169
0.17681679797422
-0.0021856073280293
0.17693250381178
-0.0023266889313874
0.177059534133
-0.0024669809736138
0.17719896025298
-0.0026134100187091
0.17735102115575
-0.0027552431149488
0.17751728012856
-0.0029085197112308
0.17769739138118
-0.0030488864296817
0.17789393465685
-0.003212752295725
0.1781050018814
-0.0033439751850641
0.17833548700366
-0.0035264351261143
0.17857956018998
-0.0036309087739718
-0.0038498238339798
0.17884780162526
0.1661282575408
-5.3900636577126e-05
0.16613186990857
-0.0001607619114618
0.16613813639384
-0.00026959386401954
0.16614718194408
-0.00037976460248582
0.16615901825994
-0.00049041099940568
0.16617369989276
-0.00060155712016765
0.16619142500693
-0.0007138450886955
0.16621255438376
-0.00082814884527911
0.16623756065867
-0.00094510868363115
0.16626697143678
-0.0010651233626937
0.16630131129115
-0.0011881718568498
0.16634109643383
-0.0013142690327738
0.16638681702863
-0.0014431075143288
0.16643899552572
-0.001574924894875
0.16649816243724
-0.001709396093225
0.16656495768978
-0.0018473348191116
0.16664001295865
-0.0019879472225397
0.16672412459
-0.0021327486271971
0.16681795447067
-0.0022794371983093
0.16692243944282
-0.0024311738932877
0.16703814987185
-0.0025826913926691
0.16716626180955
-0.0027415219466649
0.16730712519001
-0.002896106485995
0.16746243993785
-0.0030638344499452
0.16763198620418
-0.0032184326872228
0.16781852271465
-0.0033992887976851
0.16802028906757
-0.0035457415297671
0.16824234092454
-0.0037484869751696
0.16847917208603
-0.0038677399278835
-0.0041116848687451
0.16874103312909
0.15680390566247
-5.4777599716831e-05
0.15680644057476
-0.00016329681360041
0.15681092312941
-0.00027407640844623
0.15681747494273
-0.00038631640562451
0.15682610002094
-0.00049903606756317
0.15683684817738
-0.00061230526666131
0.15684992034655
-0.00072691724809953
0.15686568751417
-0.00084391600325184
0.1568846374333
-0.00096405859327455
0.15690731454037
-0.0010878004603296
0.15693426054182
-0.0012151178489693
0.15696600861237
-0.0013460170939618
0.15700306735839
-0.001480166251019
0.15704598062629
-0.0016178381533596
0.15709530609229
-0.0017587215498203
0.15715171788899
-0.0019037466063515
0.15721589064869
-0.0020521199728488
0.15728867269247
-0.0022055306616361
0.15737078747453
-0.0023615519711988
0.15746324239159
-0.0025236288013642
0.15756669075552
-0.0026861397479181
0.1576824012977
-0.0028572324804879
0.15781083426698
-0.0030245394473147
0.15795381043341
-0.0032068106088035
0.15811124868269
-0.003375870929359
0.15828605654357
-0.0035740966517843
0.15847665693982
-0.0037363419195539
0.15868820095515
-0.0039600309843389
0.1589156931621
-0.0040952321288602
-0.0043647573033126
0.15916876560335
0.14800288068668
-5.5307347233382e-05
0.14800437288006
-0.0001647889969454
0.14800712560723
-0.00027682912563969
0.14801125510159
-0.00039044589022063
0.14801675658043
-0.00050453753700492
0.14802367312409
-0.00061922180126134
0.14803220442107
-0.00073544853643038
0.14804272520408
-0.00085443677795283
0.14805573039901
-0.0009770637802617
0.14807177218943
-0.0011038422430437
0.14809140049855
-0.0012347461505964
0.14811515604027
-0.0013697726282487
0.14814355699183
-0.0015085671952206
0.14817715852421
-0.0016514396783214
0.14821653579267
-0.0017980988108611
0.1482623852989
-0.0019495961050942
0.14831541362326
-0.0021051482897723
0.14837650727417
-0.0022666243051632
0.14844644045657
-0.0024314851463883
0.1485262761095
-0.0026034644473142
0.14861674274261
-0.0027766063744156
0.1487191819648
-0.0029596716964808
0.14883416537946
-0.0031395228562831
0.14896360426616
-0.0033362494903447
0.14910758664771
-0.0035198533062853
0.14926909034335
-0.0037356003432833
0.14944688053377
-0.0039141321062303
0.14964584638404
-0.0041589968311259
0.1498621570759
-0.0043115428172611
-0.0046066028935659
0.15010400267034
0.13969581661744
-5.5506695084805e-05
0.13969631772407
-0.00016529009286213
0.13969742172237
-0.0002779331134049
0.13969923843065
-0.0003922625885077
0.13970175385124
-0.00050705294835004
0.13970500229965
-0.00062247024117657
0.13970917841048
-0.00073962463956772
0.13971465439473
-0.00085991275519866
0.13972192475344
-0.00098433413264709
0.13973154040061
-0.0011134578843671
0.13974405122571
-0.0012472569702547
0.13975999606266
-0.001385717459969
0.13977989459784
-0.0015284657252991
0.13980430254364
-0.0016758476190152
0.13983380352617
-0.0018275997882865
0.13986910263695
-0.0019848952107029
0.13991092811643
-0.0021469737641221
0.13996018791812
-0.0023158841017792
0.14001769717742
-0.002488994400815
0.14008455560605
-0.002670322871353
0.14016156037893
-0.0028536111431461
0.1402501017321
-0.0030482130460295
0.14035086641059
-0.0032402875318096
0.140465797164
-0.0034511802414841
0.14059523593672
-0.0036492920774558
0.14074201214861
-0.0038823765542881
0.14090563987575
-0.0040777598329779
0.14109012534479
-0.0043434823000254
0.14129342092338
-0.004514838395498
-0.0048349559853233
0.14152177401622
0.13185499427366
-5.5396227315315e-05
0.13185456830389
-0.00016486410968913
0.13185412678936
-0.0002774915855698
0.131853771854
-0.0003919076407704
0.13185348014521
-0.00050676122846972
0.13185327577673
-0.000622265862925
0.13185334483434
-0.00073969368873027
0.13185405079463
-0.00086061870821013
0.1318558807503
-0.00098616408208964
0.13185937581448
-0.0011169529431059
0.13186507866783
-0.0012529598187968
0.13187351666879
-0.0013941554564854
0.13188520444859
-0.0015401535008828
0.13190068654826
-0.0016913297145167
0.13192054860634
-0.0018474618422308
0.13194548753539
-0.0020098341355875
0.13197624682887
-0.0021777330534708
0.13201373308017
-0.0023533703490323
0.1320587980382
-0.0025340593550506
0.13211255097839
-0.0027240758081027
0.13217585768035
-0.0029169178422259
0.13225012531988
-0.0031224806833796
0.13233616814431
-0.0033263303548976
0.13243589506293
-0.0035509071597016
0.13254995525406
-0.00376335226914
0.13268087694055
-0.0040132982422556
0.13282907023324
-0.0042259531278123
0.13299759295302
-0.004512005022247
0.13318631766622
-0.004703563110745
-0.0050475926212223
0.13339895430092
0.12445424951536
-5.4999386472446e-05
0.12445296848782
-0.00016358306212299
0.1244511008911
-0.00027562396832763
0.12444873907857
-0.00038954580882012
0.12444585017149
-0.00050387230378396
0.12444244854545
-0.00061886422120388
0.1244387093463
-0.0007359544757998
0.12443498007783
-0.00085688942761009
0.12443173296523
-0.00098291695880153
0.12442949189078
-0.0011147118590617
0.12442878706444
-0.0012522549836864
0.12443012553374
-0.0013954939175408
0.12443401235111
-0.0015440403103455
0.12444096789379
-0.0016982852494269
0.12445157646184
-0.0018580704025903
0.12446650505721
-0.0020247627233063
0.12448651364209
-0.002197741630788
0.12451247378872
-0.0023793304882778
0.12454528551553
-0.0025668710748359
0.12458601994407
-0.0027648102301396
0.12463563233211
-0.0029665302245064
0.12469549708807
-0.0031823454345313
0.12476655700608
-0.0033973902692295
0.12485072140901
-0.0036350715602145
0.12494876757208
-0.0038613984311117
0.12506325670508
-0.0041277873754479
0.12519468359796
-0.0043573800218703
0.1253462169223
-0.0046635383482106
0.1255185865025
-0.0048759326921355
-0.0052436285172026
0.12571462239848
0.11746888630782
-5.4341888646254e-05
0.11746682839904
-0.00016152512099593
0.11746366589289
-0.00027246142850137
0.11745947881092
-0.00038535869422852
0.11745422353595
-0.00049861699831084
0.11744790634068
-0.00061254699781887
0.11744069233917
-0.00072874044850732
0.1174329067732
-0.00084910383788285
0.11742499923168
-0.00097500939523658
0.1174174688753
-0.0011071814819316
0.1174108275581
-0.0012456136467225
0.11740555510721
-0.0013902214475352
0.11740214485705
-0.0015406300415045
0.11740108211972
-0.00169722249367
0.11740294899377
-0.0018599372584026
0.11740835813842
-0.0020301718498811
0.11741809344514
-0.0022074769196734
0.11743294413422
-0.0023941811598795
0.11745389302404
-0.0025878199477273
0.1174818889807
-0.0027928061707032
0.11751805380437
-0.0030026950331381
0.11756360024062
-0.0032278918571324
0.11761968190821
-0.0034534719247013
0.11768816325529
-0.0037035528969316
0.11776980923056
-0.0039430443977807
0.11786784216675
-0.0042258203048544
0.11798142236037
-0.0044709602101784
0.11811604224343
-0.0047981582268069
0.11826842329584
-0.0050283137398417
-0.0054242163933215
0.11844901117867
0.11087559967924
-5.3456627618382e-05
0.11087285058537
-0.00015877597766883
0.11086853205616
-0.00026814284786098
0.11086271302042
-0.00037953960808821
0.11085534408054
-0.00049124801034143
0.11084641724753
-0.00060362011936857
0.11083608166308
-0.00071840482113879
0.11082463686238
-0.00083765899642641
0.11081251090317
-0.00096288339705893
0.11080017582567
-0.0010948463667972
0.11078811736135
-0.0012335551457901
0.11077678309155
-0.0013788871418241
0.1107666502393
-0.0015304971538687
0.11075816222611
-0.0016887344454661
0.11075189448848
-0.0018536694861082
0.11074838958514
-0.0020266669122053
0.11074846113939
-0.0022075484400621
0.110752773434
-0.0023984934212446
0.11076243716735
-0.0025974836487736
0.1107781632753
-0.0028085322475962
0.11080139774423
-0.003025929472674
0.11083289055785
-0.0032593846433034
0.11087440824315
-0.0034949895847652
0.11092710959983
-0.0037562542306873
0.11099248546252
-0.0040084202399882
0.11107375961199
-0.0043070944363167
0.11116930185297
-0.0045665024353844
0.11128884433492
-0.0049177006944346
0.111417296879
-0.0051567662697772
-0.0055907262351683
0.11158380673809
0.10465240055823
-5.2391158378419e-05
0.10464906924412
-0.00015544459583728
0.10464373125024
-0.00026280478498292
0.10463646159853
-0.00037226988868222
0.10462724011888
-0.00048202646536394
0.10461604446923
-0.00059242440698028
0.10460296992591
-0.00070533021749112
0.10458827879006
-0.00082296780226316
0.10457238263375
-0.00094698718402579
0.10455572948133
-0.0010781931588661
0.10453878008328
-0.0012166056931255
0.10452195527155
-0.0013620622761813
0.10450571263297
-0.0015142544619197
0.10449045305222
-0.0016734748118497
0.10447672826263
-0.0018399446441175
0.10446500544918
-0.0020149440469583
0.10445610911313
-0.002198652052929
0.10445057091968
-0.0023929551777641
0.10444964075104
-0.0025965534315057
0.10445373094794
-0.0028126223978585
0.10446475038537
-0.0030369488658691
0.1044826428563
-0.0032772770729274
0.10451045018525
-0.0035227968754257
0.10454723949526
-0.0037930435055743
0.10459759168232
-0.0040587723951215
0.10466009725661
-0.0043695999820846
0.10473946605528
-0.0046458712086033
0.10484069820069
-0.0050189328166068
0.10495409819525
-0.0052701662416777
-0.0057397978809596
0.10510316986854
0.098778492849529
-5.1165666489465e-05
0.098774717699155
-0.00015166936570748
0.098768482821661
-0.00025656982724609
0.098759922690642
-0.00036370967885512
0.098749061085158
-0.00047116478320498
0.098735938714841
-0.00057930196216873
0.09872051156297
-0.00068990299304261
0.098703017007151
-0.00080547317534627
0.098683841286985
-0.00092781139386222
0.098663386496829
-0.001057738299463
0.098642088251569
-0.0011953073791905
0.098620352482062
-0.0013403264384112
0.098598611905848
-0.0014925138178655
0.098577239109039
-0.0016521019475866
0.098556748854637
-0.0018194543227985
0.09853754854151
-0.0019957436675424
0.098520416164728
-0.0021815196108503
0.098505788090598
-0.0023783270397059
0.098494945639295
-0.002585710918379
0.098488117524814
-0.0028057942243525
0.098487505117384
-0.0030363364030544
0.098492423370892
-0.003282195275111
0.098507082757082
-0.0035374562146242
0.098528232134372
-0.0038141928401285
0.098564767538353
-0.0040953077607209
0.098606889588402
-0.0044117219982518
0.09867331410693
-0.0047122956974064
0.098740859087555
-0.0050864777700493
0.098844510835258
-0.0053738179618628
0.09900774704135
-0.0059030340540847
0.39459011552226
0.0046514339519005
0.3900975116514
0.0044926038921384
0.38576823365159
0.0043292780210041
0.38160665903987
0.0041615746331169
0.37761702271177
0.0039896363497689
0.37380341744302
0.003813605290818
0.37016978626317
0.0036336312022801
0.36671991240559
0.0034498738804563
0.36345741246062
0.0032624999681958
0.36038573279929
0.0030716796849744
0.35750814674441
0.0028775860788283
0.35482775103233
0.0026803957364039
0.35234746168988
0.0024802893669975
0.35007000983664
0.0022774518780897
0.34799793752672
0.0020720723349181
0.34613359378286
0.0018643437690745
0.34447913093428
0.0016544628738541
0.34303650125654
0.0014426297031539
0.34180745384501
0.0012290474369278
0.34079353153556
0.0010139223349234
0.33999606755736
0.00079746400358915
0.3394161807984
0.00057988678440891
0.33905476627854
0.0003614145451749
0.33891245429575
0.00014231200815234
0.3389897428715
-7.7288550516649e-05
0.33928708501526
-0.0002973421184708
0.33980438025423
-0.00051729521380636
0.34054142741532
-0.0007370471358615
0.34149781009151
-0.00095638265108537
0.34267288380062
-0.0011750736839387
0.34406577455541