/*--------------------------------*- C++ -*----------------------------------*\
| =========                 |                                                 |
| \\      /  F ield         | OpenFOAM: The Open Source CFD Toolbox           |
|  \\    /   O peration     | Version:  2112                                  |
|   \\  /    A nd           | Website:  www.openfoam.com                      |
|    \\/     M anipulation  |                                                 |
\*---------------------------------------------------------------------------*/
FoamFile
{
    version     2.0;
    format      ascii;
    arch        "LSB;label=32;scalar=64";
    class       volVectorField;
    location    "14";
    object      U;
}
// * * * * * * * * * * * * * * * * * * * * * * * * * * * * * * * * * * * * * //

dimensions      [0 1 -1 0 0 0 0];

internalField   nonuniform List<vector> 
22000
(
(1.0000010419837 -2.5864265981398e-05 0)
(1.0000267895719 -7.7357763538813e-05 0)
(1.0000761216001 -0.00012871162297991 0)
(1.000150214212 -0.0001801511446644 0)
(1.0002496711801 -0.00023172598397473 0)
(1.0003745581055 -0.00028327252786612 0)
(1.0005246186019 -0.00033451439886827 0)
(1.0006995005446 -0.00038521746056705 0)
(1.0008988471372 -0.00043525352054382 0)
(1.0011223357492 -0.00048461934305877 0)
(1.0013696714972 -0.00053335248451436 0)
(1.0016406066225 -0.0005815334488128 0)
(1.0019348883078 -0.00062916503448265 0)
(1.0022522898269 -0.00067627924112593 0)
(1.0025925161615 -0.00072274471866081 0)
(1.0029552969969 -0.00076856924687407 0)
(1.0033402144102 -0.00081347620242409 0)
(1.0037469321652 -0.00085759488025824 0)
(1.0041748587032 -0.00090045177210573 0)
(1.0046236494805 -0.0009425289357386 0)
(1.0050924977206 -0.00098289751735209 0)
(1.0055811816691 -0.0010228036729355 0)
(1.006088555959 -0.0010601926865607 0)
(1.0066147358012 -0.0010980222757513 0)
(1.0071579340512 -0.0011316084808155 0)
(1.0077190081917 -0.0011678839726397 0)
(1.0082949386267 -0.0011961065316008 0)
(1.0088881398151 -0.0012324294623479 0)
(1.0094932650661 -0.0012520953127894 0)
(1.0101159156839 -0.0012925364464746 0)
(1.0000004949218 -7.6004812523642e-05 0)
(1.0000260790283 -0.00022747905434425 0)
(1.0000754127624 -0.00037874572174918 0)
(1.0001496438139 -0.0005303980252652 0)
(1.0002494302776 -0.00068253287783147 0)
(1.0003748993481 -0.00083465145988906 0)
(1.0005258389547 -0.00098594238216157 0)
(1.0007019362365 -0.0011357253912185 0)
(1.0009028573158 -0.0012836304424903 0)
(1.0011283164689 -0.0014296495921104 0)
(1.0013780367822 -0.0015738913177097 0)
(1.0016518210013 -0.0017165877492375 0)
(1.0019494177149 -0.0018577439037777 0)
(1.0022706704038 -0.0019974491202886 0)
(1.0026152480846 -0.002135317140143 0)
(1.0029830008477 -0.0022713646837619 0)
(1.0033733989493 -0.0024047815140178 0)
(1.0037863392963 -0.0025359322894522 0)
(1.0042209497781 -0.0026634351495323 0)
(1.0046773635411 -0.0027886725310275 0)
(1.0051541196972 -0.002908952766142 0)
(1.0056520164856 -0.0030278609868286 0)
(1.0061684396574 -0.0031394756573411 0)
(1.0067057271776 -0.0032522907303895 0)
(1.0072588495649 -0.0033528608064559 0)
(1.0078335041903 -0.0034610338253224 0)
(1.0084196274683 -0.0035460858345926 0)
(1.0090300640844 -0.0036541297164423 0)
(1.009644423778 -0.0037146112979939 0)
(1.0102907411493 -0.0038340202780202 0)
(1.0000005298114 -0.00012375768827043 0)
(1.0000268245484 -0.00037053043353016 0)
(1.0000774539458 -0.00061727503681001 0)
(1.0001535055573 -0.00086484894095482 0)
(1.0002555873615 -0.0011133192307922 0)
(1.0003838246787 -0.0013618591237755 0)
(1.0005380328447 -0.0016091857571013 0)
(1.0007179552247 -0.0018542452451417 0)
(1.0009233076778 -0.0020964704913133 0)
(1.0011538792826 -0.0023358609661453 0)
(1.0014094337435 -0.002572580793386 0)
(1.001689859494 -0.0028069932655395 0)
(1.0019949107716 -0.0030390819447993 0)
(1.0023245442444 -0.0032689914766544 0)
(1.0026783738443 -0.0034960767192966 0)
(1.0030564468007 -0.0037203924006193 0)
(1.0034580586771 -0.0039405894630656 0)
(1.003883494504 -0.0041573118199365 0)
(1.0043314295709 -0.0043682204141322 0)
(1.0048027974735 -0.0045756689064264 0)
(1.0052950484718 -0.0047750781707435 0)
(1.0058107104961 -0.0049725443606633 0)
(1.0063446617444 -0.00515801149369 0)
(1.0069030777352 -0.0053459204652508 0)
(1.0074752616496 -0.0055134511926285 0)
(1.0080754423373 -0.0056942928418751 0)
(1.0086809361441 -0.0058363164086055 0)
(1.0093234048236 -0.0060176953338367 0)
(1.0099547848358 -0.0061188360071493 0)
(1.0106447635839 -0.0063200996051288 0)
(1.0000005570236 -0.00016997387036005 0)
(1.0000275305633 -0.00050886010762295 0)
(1.0000794975874 -0.00084800354745722 0)
(1.0001575867103 -0.0011884442351488 0)
(1.0002623923807 -0.0015301609751419 0)
(1.0003940271256 -0.0018720393749648 0)
(1.0005523144619 -0.0022124304520903 0)
(1.0007370587649 -0.0025500179932352 0)
(1.0009480431794 -0.0028841073057787 0)
(1.0011851672177 -0.0032147293156028 0)
(1.0014482575441 -0.0035420861370651 0)
(1.0017373292709 -0.0038666475365127 0)
(1.0020521480564 -0.0041883413090054 0)
(1.0023928351368 -0.0045073686218491 0)
(1.002758928999 -0.0048228168374444 0)
(1.0031507624698 -0.0051348288281878 0)
(1.0035673867924 -0.0054415021157219 0)
(1.0040096473449 -0.0057438381171553 0)
(1.0044755804103 -0.0060384507425002 0)
(1.0049672695377 -0.006328793775844 0)
(1.0054806205066 -0.0066081765088373 0)
(1.0060206354129 -0.0068855099415436 0)
(1.0065786279439 -0.007146126954755 0)
(1.0071662498563 -0.0074111271501472 0)
(1.0077647494973 -0.0076472452699813 0)
(1.0084005084429 -0.0079035960600017 0)
(1.0090329308437 -0.0081042054560137 0)
(1.0097204374531 -0.0083628489474422 0)
(1.0103757633353 -0.0085054274990482 0)
(1.011127675194 -0.0087941514202978 0)
(1.0000005883649 -0.00021472356931455 0)
(1.0000282415987 -0.00064272893097193 0)
(1.0000815688736 -0.0010714565284855 0)
(1.000161764818 -0.0015019977878331 0)
(1.0002694217861 -0.0019341644705977 0)
(1.0004046436139 -0.0023666040335796 0)
(1.0005672659968 -0.0027974276452334 0)
(1.0007571723394 -0.0032251897180145 0)
(1.0009742344617 -0.0036491520141223 0)
(1.0012184986755 -0.0040694089290602 0)
(1.0014898787979 -0.0044861830467061 0)
(1.0017885603634 -0.0049000261211 0)
(1.0021143311006 -0.0053107716364272 0)
(1.0024675326208 -0.0057186824693172 0)
(1.0028476150812 -0.0061225659759777 0)
(1.0032552893112 -0.0065227158492322 0)
(1.0036893031668 -0.0069166508253782 0)
(1.0041512350047 -0.0073058298855305 0)
(1.0046383131924 -0.0076856970975527 0)
(1.005154112283 -0.008060979131897 0)
(1.0056925718653 -0.0084225746168557 0)
(1.0062618820885 -0.0087826176116268 0)
(1.006848809531 -0.0091211909269564 0)
(1.0074720320848 -0.0094670056453119 0)
(1.0081025217223 -0.0097749192991988 0)
(1.0087821979298 -0.01011159561177 0)
(1.0094476419911 -0.010373968378144 0)
(1.0101913680782 -0.01071616157291 0)
(1.0108762596921 -0.010902328217582 0)
(1.0117060970052 -0.011287178153756 0)
(1.0000006221723 -0.00025796997252533 0)
(1.0000288815444 -0.00077203188281904 0)
(1.000083439776 -0.0012875143887352 0)
(1.0001655648859 -0.0018054137464786 0)
(1.0002758472021 -0.0023252790089009 0)
(1.0004143860837 -0.002845568553081 0)
(1.0005810395235 -0.0033642927185686 0)
(1.0007757940633 -0.0038800260621849 0)
(1.00099863614 -0.0043920821111576 0)
(1.0012497980278 -0.0049006560629017 0)
(1.0015293077454 -0.0054059721168485 0)
(1.0018375670988 -0.005908638340348 0)
(1.0021744006056 -0.0064083513149064 0)
(1.0025404283172 -0.0069054443550205 0)
(1.0029350054555 -0.0073984309025163 0)
(1.0033593144422 -0.0078878306166174 0)
(1.003811751325 -0.0083705530877038 0)
(1.0042947978069 -0.0088486353378422 0)
(1.0048047253571 -0.0093162067617726 0)
(1.0053469278916 -0.0097794762844157 0)
(1.0059129968577 -0.010226578215558 0)
(1.0065149843527 -0.010673359228212 0)
(1.0071342110233 -0.011093893804208 0)
(1.0077978211869 -0.011525639549576 0)
(1.0084644799834 -0.011909877723056 0)
(1.0091947526432 -0.012333342880223 0)
(1.009897931767 -0.012662031114074 0)
(1.0107072869585 -0.013096030364799 0)
(1.0114262659354 -0.013329181769916 0)
(1.0123479972085 -0.013821235079912 0)
(1.0000006559323 -0.00029957108120092 0)
(1.0000293531894 -0.00089634110036323 0)
(1.0000848312836 -0.0014954896125629 0)
(1.0001684363721 -0.0020977609155456 0)
(1.0002807554881 -0.0027023378663636 0)
(1.0004218870692 -0.0033075428151389 0)
(1.0005917223188 -0.003911436494763 0)
(1.0007903763588 -0.0045127771931741 0)
(1.001017977919 -0.0051110354566048 0)
(1.0012749853636 -0.0057065503823749 0)
(1.0015615697226 -0.0062995299201971 0)
(1.0018783957481 -0.0068906141498739 0)
(1.0022253428346 -0.0074793195851039 0)
(1.0026033685499 -0.0080660640822105 0)
(1.0030117330409 -0.0086490550194628 0)
(1.0034521837887 -0.0092291253651426 0)
(1.0039227285906 -0.0098025444431401 0)
(1.0044269181109 -0.010372065749942 0)
(1.0049599411253 -0.010930346033619 0)
(1.0055293216043 -0.011485314936361 0)
(1.0061239686257 -0.012021952178913 0)
(1.0067604186525 -0.012560366318676 0)
(1.0074137511743 -0.013067782685149 0)
(1.0081208860082 -0.013591668193606 0)
(1.008826380737 -0.014057844945127 0)
(1.0096122312282 -0.014575909591851 0)
(1.0103565106742 -0.014976671250517 0)
(1.0112391259505 -0.015512369232825 0)
(1.0119957563435 -0.015797108252008 0)
(1.0130213617949 -0.0164094290822 0)
(1.0000006874306 -0.00033929203298368 0)
(1.0000295626949 -0.0010149500793276 0)
(1.0000854750116 -0.00169421843212 0)
(1.0001698527012 -0.0023774261316698 0)
(1.0002832770792 -0.0030632828706833 0)
(1.0004258477993 -0.0037500330324377 0)
(1.0005974993298 -0.0044359493804781 0)
(1.0007985003034 -0.0051201488584977 0)
(1.0010291497489 -0.0058023725414686 0)
(1.0012901719723 -0.0064831517708428 0)
(1.0015819108125 -0.0071626624597857 0)
(1.0019053401748 -0.0078415549171551 0)
(1.0022604151768 -0.00851912396247 0)
(1.002648489239 -0.0091958919001038 0)
(1.0030687336996 -0.0098697517017141 0)
(1.003523551921 -0.010541947910679 0)
(1.0040105402869 -0.011208081302201 0)
(1.0045344751308 -0.011871775257526 0)
(1.0050893643046 -0.01252405125729 0)
(1.0056851470374 -0.013174819826638 0)
(1.0063077740869 -0.013805496836881 0)
(1.0069788231253 -0.014441041250806 0)
(1.0076664629108 -0.015040942635716 0)
(1.0084185336299 -0.015664017079181 0)
(1.0091639678277 -0.016218642498024 0)
(1.0100085821365 -0.016840222338096 0)
(1.010795938547 -0.017319912468969 0)
(1.0117575312444 -0.017968596024183 0)
(1.0125544072041 -0.018310780979085 0)
(1.0136936629906 -0.019058142083873 0)
(1.0000007147879 -0.00037683928598935 0)
(1.0000294259866 -0.0011269771616364 0)
(1.0000851239796 -0.0018822335813637 0)
(1.0001693275834 -0.0026423567575925 0)
(1.0002826124694 -0.0034054778046896 0)
(1.0004250797177 -0.0041698267391319 0)
(1.0005967139194 -0.0049340573320933 0)
(1.0007979587591 -0.0056978270088974 0)
(1.0010293099079 -0.0064612659866629 0)
(1.001291795386 -0.0072251497902018 0)
(1.0015859615272 -0.007989609186487 0)
(1.0019131353867 -0.008755286187464 0)
(1.0022733706386 -0.0095212160893203 0)
(1.0026684717417 -0.010288051518304 0)
(1.0030975335637 -0.011053368892296 0)
(1.0035636999174 -0.011818931630256 0)
(1.0040641469946 -0.012579650719472 0)
(1.004605018867 -0.013340183782931 0)
(1.005179076281 -0.014089759733908 0)
(1.0057989233647 -0.014840542634717 0)
(1.0064473472217 -0.015569977499597 0)
(1.0071514366896 -0.016308477112117 0)
(1.0078719354 -0.017006907488771 0)
(1.0086685443159 -0.017736791050826 0)
(1.0094533915324 -0.018387072071059 0)
(1.0103580252797 -0.019121919593778 0)
(1.0111889679787 -0.01968837172369 0)
(1.0122331390585 -0.020462433163573 0)
(1.0130718190965 -0.020869212745363 0)
(1.0143320151524 -0.02176772031583 0)
(1.0000007364656 -0.00041189299979242 0)
(1.0000288767485 -0.0012314661216606 0)
(1.0000835824175 -0.0020579348513195 0)
(1.0001664646539 -0.0028903000019563 0)
(1.0002780928945 -0.0037260126456999 0)
(1.0004185721696 -0.0045633572893844 0)
(1.0005879449961 -0.0054015425040467 0)
(1.000786849065 -0.0062409514303367 0)
(1.0010159998186 -0.007082225291694 0)
(1.001276761337 -0.0079264380227814 0)
(1.0015699093884 -0.0087736653893364 0)
(1.0018971625591 -0.0096245253948518 0)
(1.0022586965227 -0.010477761862977 0)
(1.0026568156745 -0.011334188507008 0)
(1.0030905567464 -0.012191072280951 0)
(1.0035638779076 -0.013050808427806 0)
(1.0040735418962 -0.013907609387928 0)
(1.0046271808343 -0.014767336053752 0)
(1.0052162787917 -0.015617284671366 0)
(1.0058563064634 -0.01647214565977 0)
(1.0065267648447 -0.017305013142972 0)
(1.007260615477 -0.018152342427342 0)
(1.008010844523 -0.01895553932201 0)
(1.0088497053453 -0.019800137242278 0)
(1.0096717455794 -0.020553764368985 0)
(1.0106355882681 -0.021412174872118 0)
(1.0115090762587 -0.022074062998523 0)
(1.0126370994754 -0.022986673889261 0)
(1.0135180248836 -0.023466495553515 0)
(1.0149036453334 -0.024533149298591 0)
(1.000000750656 -0.00044413073402859 0)
(1.0000278636341 -0.0013274546778298 0)
(1.0000807057287 -0.0022197077412312 0)
(1.00016097261 -0.0031189780164021 0)
(1.0002692216913 -0.0040219393554106 0)
(1.000405561892 -0.0049270016323764 0)
(1.000570100854 -0.0058341024976731 0)
(1.0007636853577 -0.0067445342797509 0)
(1.0009872714757 -0.0076595713881997 0)
(1.0012425867403 -0.00858064033204 0)
(1.0015306623655 -0.0095077576619731 0)
(1.0018536377048 -0.010441503970924 0)
(1.0022118337287 -0.011380309047503 0)
(1.0026080909228 -0.01232517914018 0)
(1.0030414134449 -0.013273093192319 0)
(1.0035166293166 -0.014227188774188 0)
(1.0040301142583 -0.015180993716569 0)
(1.0045910761468 -0.016141732766215 0)
(1.0051897367175 -0.017094665742118 0)
(1.0058445711518 -0.01805726040483 0)
(1.0065317692446 -0.018997942346653 0)
(1.0072903902946 -0.019959738214775 0)
(1.0080655438853 -0.020873879606476 0)
(1.0089424330063 -0.021841065754362 0)
(1.0097977022495 -0.022705975596785 0)
(1.0108177520624 -0.023698443988023 0)
(1.0117311066488 -0.024465099390364 0)
(1.0129417276453 -0.025529835602812 0)
(1.0138641504751 -0.026092433043222 0)
(1.015376613871 -0.027344649417149 0)
(1.0000007566196 -0.00047325203856077 0)
(1.0000263536116 -0.0014140455411703 0)
(1.0000763974458 -0.0023660390506876 0)
(1.0001526543026 -0.0033262486211498 0)
(1.000255660047 -0.004290479578383 0)
(1.000385524874 -0.0052573368952673 0)
(1.0005424279755 -0.0062276573351218 0)
(1.0007274344695 -0.0072038185415703 0)
(1.0009417579847 -0.0081878476117407 0)
(1.001187503506 -0.009181574039799 0)
(1.0014659817986 -0.010184957503283 0)
(1.0017797687296 -0.01119852675869 0)
(1.0021293622362 -0.012220391023435 0)
(1.0025181515558 -0.013251774095112 0)
(1.0029451514666 -0.014289413713363 0)
(1.003416075588 -0.0153372793127 0)
(1.0039269788327 -0.016388274350429 0)
(1.0044886677131 -0.017451104704471 0)
(1.0050901931524 -0.018508974426416 0)
(1.0057530621558 -0.019582295968892 0)
(1.0064502758952 -0.020634657150537 0)
(1.0072270124662 -0.021716014907153 0)
(1.0080206773658 -0.022746990003951 0)
(1.0089294211097 -0.023844248484787 0)
(1.0098122272863 -0.024828403239885 0)
(1.0108832149531 -0.025965228581721 0)
(1.011832031236 -0.026846404411948 0)
(1.0131212624785 -0.02807681052124 0)
(1.0140830728719 -0.028733074646152 0)
(1.0157203746811 -0.030187983054337 0)
(1.0000007532244 -0.00049900064340388 0)
(1.0000243314123 -0.0014904751589625 0)
(1.0000706112643 -0.0024956324427093 0)
(1.0001414112667 -0.0035102650989805 0)
(1.0002372354578 -0.0045292256635532 0)
(1.000358188698 -0.0055513808578197 0)
(1.0005045256409 -0.00657862797549 0)
(1.0006775312339 -0.0076145950674582 0)
(1.0008786905348 -0.0086621762944165 0)
(1.001110486904 -0.0097236492236294 0)
(1.0013745345824 -0.010798924813467 0)
(1.0016738371516 -0.011888461855091 0)
(1.0020091120925 -0.012990060384357 0)
(1.0023842731331 -0.014105173396749 0)
(1.0027984284642 -0.015230381386513 0)
(1.0032581168068 -0.016370532766674 0)
(1.0037592290754 -0.017518045877568 0)
(1.0043140415506 -0.018683125920495 0)
(1.0049107217695 -0.019847068121822 0)
(1.0055735475305 -0.021033196076142 0)
(1.0062728385796 -0.022200403674716 0)
(1.0070593777884 -0.023405543937326 0)
(1.007863766782 -0.024558787095223 0)
(1.0087961271997 -0.025792758180469 0)
(1.0096992965865 -0.026904060491902 0)
(1.010813524959 -0.028194770983897 0)
(1.0117917917923 -0.029200591742835 0)
(1.0131528922984 -0.030609661279118 0)
(1.0141506036084 -0.031371534900182 0)
(1.0159070261284 -0.033045455632232 0)
(1.0000007403173 -0.00052117948336183 0)
(1.0000217990007 -0.0015561584835261 0)
(1.0000633512182 -0.0026074835178162 0)
(1.0001272464437 -0.0036695832534029 0)
(1.0002139435652 -0.0047362809766322 0)
(1.0003235341451 -0.0058067670715478 0)
(1.0004563480734 -0.0068841472197945 0)
(1.0006138857977 -0.0079734509025187 0)
(1.0007979089417 -0.0090785429560441 0)
(1.0010112718074 -0.010202191360388 0)
(1.0012559053494 -0.011344266320573 0)
(1.0015352234727 -0.012505144247899 0)
(1.0018501965406 -0.013682329886583 0)
(1.0022052216103 -0.014877521632088 0)
(1.0025995860097 -0.016087233033893 0)
(1.0030405552711 -0.017317231880209 0)
(1.0035240629047 -0.018559625574426 0)
(1.0040636001058 -0.019826075048677 0)
(1.0046469358516 -0.021096268258024 0)
(1.0053004852162 -0.022396144174054 0)
(1.0059929909654 -0.023680557526132 0)
(1.0067793418094 -0.025012401145778 0)
(1.0075857704556 -0.026292961700653 0)
(1.0085310169436 -0.027668573120491 0)
(1.0094468346061 -0.028915493078041 0)
(1.0105929823851 -0.030367181435996 0)
(1.0115944486016 -0.0315092133482 0)
(1.0130168519975 -0.033108212040163 0)
(1.0140453410551 -0.033988041918479 0)
(1.0159127498977 -0.035896510264112 0)
(1.0000007172728 -0.00053965979344921 0)
(1.0000187761646 -0.0016107158016319 0)
(1.0000546714138 -0.0027009268482385 0)
(1.0001102597867 -0.0038032296427389 0)
(1.0001859413047 -0.0049103501137601 0)
(1.0002817851725 -0.0060218578797074 0)
(1.0003981905506 -0.0071421975810436 0)
(1.0005368651237 -0.0082779340906318 0)
(1.0006998398102 -0.0094339925239344 0)
(1.0008903289284 -0.010613670309269 0)
(1.0011105736776 -0.011816801042148 0)
(1.0013643856267 -0.013043676094629 0)
(1.001652986639 -0.01429151193222 0)
(1.0019812437439 -0.015562289714895 0)
(1.0023486354535 -0.016852515958119 0)
(1.0027631380634 -0.018168970917342 0)
(1.0032207716463 -0.019503540741934 0)
(1.0037362107665 -0.020869447595147 0)
(1.0042969319138 -0.022244852078398 0)
(1.0049313996534 -0.023658389975741 0)
(1.0056070225903 -0.025060980501425 0)
(1.0063825573603 -0.026521600827434 0)
(1.0071804256759 -0.027932850090364 0)
(1.0081272625695 -0.029454703541264 0)
(1.0090453571605 -0.030843639584815 0)
(1.0102112077331 -0.032463250146301 0)
(1.0112274265974 -0.033752547763442 0)
(1.0126971699498 -0.035549483262572 0)
(1.0137517840423 -0.036563121120321 0)
(1.0157166809122 -0.038719318986124 0)
(1.0000006846687 -0.000554385112301 0)
(1.000015297019 -0.0016539849581794 0)
(1.0000446686695 -0.0027756572379137 0)
(1.0000906383574 -0.0039107331898282 0)
(1.000153531307 -0.0050507824673027 0)
(1.0002333849289 -0.0061958010539767 0)
(1.0003306577422 -0.0073516837947047 0)
(1.0004472504116 -0.0085266439756569 0)
(1.0005854467822 -0.0097267420329985 0)
(1.0007488020552 -0.010955836515019 0)
(1.0009398490889 -0.01221372822948 0)
(1.0011627768302 -0.013500622319205 0)
(1.0014190422731 -0.014813457753672 0)
(1.0017139641579 -0.016154535321514 0)
(1.0020472022214 -0.017520415904045 0)
(1.0024274293704 -0.018918979846019 0)
(1.0028507540908 -0.020341983008603 0)
(1.0033330285567 -0.021804315402143 0)
(1.0038614612613 -0.023282692227844 0)
(1.004466568402 -0.02480855849327 0)
(1.0051144831832 -0.026328967782034 0)
(1.0058678404672 -0.027919137505769 0)
(1.006645366959 -0.029463016717948 0)
(1.0075815958532 -0.031134526785814 0)
(1.0084896036773 -0.03267016554659 0)
(1.0096623538284 -0.03446429773701 0)
(1.0106814295928 -0.035909082758236 0)
(1.0121843024652 -0.037912844190884 0)
(1.013257155037 -0.039075740043966 0)
(1.0153017939757 -0.041487780747574 0)
(1.0000006424055 -0.00056537126167568 0)
(1.0000114093992 -0.001686019816065 0)
(1.0000334782505 -0.0028317291330129 0)
(1.0000686422553 -0.0039921264280647 0)
(1.0001171379562 -0.0051575754550543 0)
(1.0001789606925 -0.0063285364586817 0)
(1.0002546150711 -0.0075124447160534 0)
(1.0003461747326 -0.0087192521122089 0)
(1.0004561521102 -0.0099562136874721 0)
(1.0005884151519 -0.011227772111654 0)
(1.0007457603369 -0.012533698290616 0)
(1.000932723526 -0.013874109940991 0)
(1.0011509703521 -0.015245681739199 0)
(1.0014062414691 -0.016651068268646 0)
(1.0016983565765 -0.018086945074976 0)
(1.0020366557437 -0.019562372971234 0)
(1.0024173256801 -0.021069067907929 0)
(1.002857365793 -0.022623687504312 0)
(1.0033437316619 -0.024201593577848 0)
(1.0039089607651 -0.0258371494251 0)
(1.004517970141 -0.02747363993415 0)
(1.0052372346093 -0.029192665161142 0)
(1.0059819170172 -0.030869620610569 0)
(1.0068943868776 -0.032692611375126 0)
(1.0077787685168 -0.034378138887089 0)
(1.0089443158675 -0.03635179490996 0)
(1.0099521806313 -0.037958538780338 0)
(1.0114735006199 -0.04017799282836 0)
(1.0125511562057 -0.041500155959676 0)
(1.0146587105902 -0.044177882389728 0)
(1.0000005922465 -0.00057270071234806 0)
(1.0000071695597 -0.001707080582376 0)
(1.0000212618081 -0.0028695394719495 0)
(1.0000445891282 -0.0040479211077784 0)
(1.0000772826186 -0.005231346041964 0)
(1.0001192857311 -0.0064207647012266 0)
(1.000171134619 -0.0076252206696984 0)
(1.0002350501209 -0.0088564700270271 0)
(1.0003137430838 -0.010123006110043 0)
(1.0004113571279 -0.011429868625243 0)
(1.0005309174723 -0.012776801935677 0)
(1.0006772657801 -0.014163832952464 0)
(1.0008522434042 -0.015587388901312 0)
(1.0010619682316 -0.017050504129656 0)
(1.0013063929058 -0.018550028847084 0)
(1.0015954721346 -0.02009626918345 0)
(1.0019254598507 -0.021680994296136 0)
(1.0023144336768 -0.023322712386813 0)
(1.0027491263316 -0.02499554381725 0)
(1.003263992192 -0.026736848872496 0)
(1.0038228546358 -0.028486307337437 0)
(1.004495833095 -0.030331944114776 0)
(1.0051948546729 -0.032140885535999 0)
(1.0060696442459 -0.034115368567809 0)
(1.0069163207909 -0.03595237196811 0)
(1.0080589217881 -0.038108425078425 0)
(1.0090411930557 -0.039882433712862 0)
(1.0105627161076 -0.042322741797326 0)
(1.0116331906724 -0.043817690019448 0)
(1.0137807418374 -0.046762935361675 0)
(1.0000005337405 -0.00057651781058989 0)
(1.000002644923 -0.0017175951478501 0)
(1.0000082060907 -0.0028897780957029 0)
(1.000018835544 -0.0040790528906338 0)
(1.0000345520059 -0.0052732635708948 0)
(1.0000552354688 -0.0064738687751089 0)
(1.0000814365526 -0.0076915677932789 0)
(1.0001154911429 -0.008939960110903 0)
(1.0001602751293 -0.010228806259224 0)
(1.0002201603003 -0.011563742714311 0)
(1.0002983634754 -0.012944493668788 0)
(1.0003999777314 -0.014370984159566 0)
(1.0005269907015 -0.015839420005979 0)
(1.0006858311357 -0.017353224810678 0)
(1.0008765668844 -0.018909491798776 0)
(1.0011096722638 -0.020519806374133 0)
(1.0013814838315 -0.022176098875543 0)
(1.0017110059397 -0.023898770436109 0)
(1.0020848616341 -0.025660853767901 0)
(1.0025391330821 -0.027502722138588 0)
(1.0030369369132 -0.029360710817124 0)
(1.0036513232937 -0.031329178248566 0)
(1.0042921698313 -0.033267470411905 0)
(1.0051145167277 -0.035391590512732 0)
(1.0059098950727 -0.037380018955443 0)
(1.007011737451 -0.039718748414766 0)
(1.0079547221408 -0.041664768705439 0)
(1.0094551226968 -0.044326056379606 0)
(1.0105066889874 -0.046009306632063 0)
(1.0126672652901 -0.049218794047409 0)
(1.000000468038 -0.00057701445553541 0)
(0.99999789517918 -0.0017181554095025 0)
(0.99999449102818 -0.0028933937378834 0)
(0.99999174279283 -0.0040868204389345 0)
(0.99998955126021 -0.0052849822397621 0)
(0.99998772406948 -0.0064898416119446 0)
(0.9999868095309 -0.00771377902858 0)
(0.99998921635885 -0.0089722468068644 0)
(0.99999795343849 -0.010276289884122 0)
(1.0000175589182 -0.011632128252829 0)
(1.0000514120417 -0.013039485117463 0)
(1.0001047798736 -0.014498155040841 0)
(1.0001797855391 -0.016004166509379 0)
(1.0002830614572 -0.017561303462514 0)
(1.0004148134021 -0.019167000534638 0)
(1.0005858641017 -0.020834091007355 0)
(1.0007927269183 -0.022554832852042 0)
(1.001055032882 -0.024351468964011 0)
(1.0013595817613 -0.026196198602928 0)
(1.0017434833583 -0.028132299321099 0)
(1.0021699651897 -0.030093166896738 0)
(1.0027135699541 -0.032179204438751 0)
(1.0032843964288 -0.034242830835864 0)
(1.0040390612545 -0.036512588660866 0)
(1.0047703820497 -0.038651600729155 0)
(1.0058120225023 -0.041168968187192 0)
(1.0067032803362 -0.043293157347713 0)
(1.0081574836575 -0.046168953297849 0)
(1.0091802260259 -0.04805627974892 0)
(1.0113251653191 -0.051524109814515 0)
(1.0000003975358 -0.00057441507789701 0)
(0.99999297802493 -0.0017094458805507 0)
(0.99998028541507 -0.0028815114628031 0)
(0.99996365320225 -0.0040727737916906 0)
(0.99994286587349 -0.0052684764677776 0)
(0.99991764607585 -0.0064710792165656 0)
(0.99988853287023 -0.0076946579096683 0)
(0.99985795796393 -0.0089564953005549 0)
(0.99982902899207 -0.010268917454025 0)
(0.99980635879638 -0.011638685888311 0)
(0.99979348446446 -0.013065560216353 0)
(0.99979573986592 -0.014549152069757 0)
(0.99981542256251 -0.016085401458968 0)
(0.99985918722811 -0.017678352921441 0)
(0.99992748490173 -0.019325952378897 0)
(1.0000311743031 -0.02104210090048 0)
(1.0001671923676 -0.022819703155715 0)
(1.0003552657167 -0.024682550459108 0)
(1.0005829121801 -0.026602552676008 0)
(1.0008873419615 -0.028625419091708 0)
(1.0012330246971 -0.030682461411748 0)
(1.0016942557995 -0.032879266640117 0)
(1.0021837037966 -0.035062948877174 0)
(1.0028561061453 -0.037472308515591 0)
(1.0035105611075 -0.039759569771483 0)
(1.0044734918591 -0.042449679215703 0)
(1.0052996956547 -0.044754352845807 0)
(1.00668278497 -0.047837825593041 0)
(1.007665225153 -0.049939458348561 0)
(1.0097613165371 -0.053653048870141 0)
(1.00000031817 -0.00056898555067529 0)
(0.99998795512648 -0.0016922416982032 0)
(0.99996576591724 -0.0028553742501639 0)
(0.99993491201047 -0.0040386189113649 0)
(0.99989507584481 -0.0052259200295987 0)
(0.99984587517752 -0.0064202012893293 0)
(0.99978783760441 -0.0076372212824351 0)
(0.99972337656788 -0.0088960709532912 0)
(0.99965568196463 -0.010210385035622 0)
(0.99958931220814 -0.011587408930347 0)
(0.9995279733161 -0.01302696442483 0)
(0.99947690444963 -0.01452837228212 0)
(0.99943869970766 -0.016087621549497 0)
(0.99941975382629 -0.017708824467054 0)
(0.99942104018845 -0.019390733423042 0)
(0.99945289656013 -0.021147909787478 0)
(0.99951324275542 -0.022974518716814 0)
(0.99962090249412 -0.024895118987894 0)
(0.99976519564945 -0.026882488166993 0)
(0.9999818188608 -0.028983415208206 0)
(1.0002383103806 -0.031128979533914 0)
(1.0006063761676 -0.033428045702168 0)
(1.0010037394754 -0.035724561128773 0)
(1.0015804803159 -0.038266337039675 0)
(1.0021448129282 -0.040694866972059 0)
(1.003013049154 -0.043554119866807 0)
(1.0037596573141 -0.04603253436075 0)
(1.0050509524562 -0.049322806631676 0)
(1.0059780591806 -0.051634111264614 0)
(1.007994516956 -0.055581212834768 0)
(1.000000227614 -0.00056107609575959 0)
(0.99998293810216 -0.0016675374127512 0)
(0.99995118868456 -0.0028164876705958 0)
(0.99990595590192 -0.0039863417799859 0)
(0.99984687162894 -0.0051598048279384 0)
(0.99977344746952 -0.0063402214420135 0)
(0.99968615365117 -0.0075448894635087 0)
(0.99958728387767 -0.0087945925670229 0)
(0.99948010758112 -0.010104372148321 0)
(0.99936906877821 -0.011482011591848 0)
(0.99925810338457 -0.012927476126508 0)
(0.99915214855451 -0.014439667279626 0)
(0.99905424478077 -0.016014760968339 0)
(0.99897014886844 -0.017656635446339 0)
(0.99890178901243 -0.019365216936691 0)
(0.99885815837534 -0.021155084185785 0)
(0.99883917277035 -0.023022647760091 0)
(0.99886105468416 -0.024991882164421 0)
(0.99891713041211 -0.02703858343291 0)
(0.99903826391012 -0.029207818285508 0)
(0.9991993685302 -0.031434317354532 0)
(0.99946362347143 -0.033825481217897 0)
(0.99976106321534 -0.036227378441891 0)
(1.0002280017561 -0.038892472207945 0)
(1.0006917868349 -0.041452654839894 0)
(1.0014479510292 -0.044479533792559 0)
(1.0021028346732 -0.047114135668198 0)
(1.00328448847 -0.050632613217542 0)
(1.0041493980517 -0.053116225487865 0)
(1.0060522221396 -0.05733510657386 0)
(1.0000001265359 -0.00055124023678514 0)
(0.99997817193219 -0.0016369671264623 0)
(0.99993702349761 -0.0027672387557145 0)
(0.99987738378601 -0.0039189248355387 0)
(0.99979898080789 -0.0050736561986778 0)
(0.99970139040007 -0.0062352861598455 0)
(0.99958504716476 -0.0074224345958431 0)
(0.99945183836938 -0.0086573110289881 0)
(0.99930488031111 -0.0099562815019533 0)
(0.9991485098869 -0.011327688599947 0)
(0.99898704588647 -0.012771826989039 0)
(0.99882507690279 -0.014287278754705 0)
(0.99866620093195 -0.015870624523599 0)
(0.998515277625 -0.017525319724874 0)
(0.99837547273051 -0.01925283638388 0)
(0.99825367599768 -0.021067107326447 0)
(0.99815269386732 -0.022967865656478 0)
(0.99808432706318 -0.024976855197366 0)
(0.99804861541484 -0.027075973913499 0)
(0.99806711979478 -0.029304370744307 0)
(0.99812913367085 -0.031607693460049 0)
(0.99827834772032 -0.034081760800497 0)
(0.99847341712302 -0.036589615175085 0)
(0.99881235839172 -0.03936934798996 0)
(0.99917562187884 -0.042064770594584 0)
(0.99979010338756 -0.045259742593099 0)
(1.0003554070433 -0.0480396754121 0)
(1.0013864182765 -0.051844712245363 0)
(1.0022148313142 -0.0544132023103 0)
(1.003959604906 -0.05917900135857 0)
(0.99999998524763 -0.00054056112517964 0)
(0.99997353664512 -0.0016039453696413 0)
(0.99992333017715 -0.0027142674093041 0)
(0.99984934009929 -0.0038466813793987 0)
(0.99975149650159 -0.0049813865327157 0)
(0.99962974531402 -0.006122701581176 0)
(0.99948473662563 -0.0072907256338222 0)
(0.99931776910163 -0.0085095088797454 0)
(0.99913146977601 -0.0097967756758298 0)
(0.9989299267563 -0.011161103675939 0)
(0.99871768588315 -0.012602897011168 0)
(0.99849909974494 -0.014120444376688 0)
(0.9982782876318 -0.015710849644316 0)
(0.99805938667161 -0.01737721049902 0)
(0.99784658508076 -0.019123118217898 0)
(0.99764485164472 -0.020961887272366 0)
(0.99745949134127 -0.022897718991358 0)