/*--------------------------------*- C++ -*----------------------------------*\
| =========                 |                                                 |
| \\      /  F ield         | OpenFOAM: The Open Source CFD Toolbox           |
|  \\    /   O peration     | Version:  2112                                  |
|   \\  /    A nd           | Website:  www.openfoam.com                      |
|    \\/     M anipulation  |                                                 |
\*---------------------------------------------------------------------------*/
FoamFile
{
    version     2.0;
    format      ascii;
    arch        "LSB;label=32;scalar=64";
    class       volVectorField;
    location    "9.4";
    object      U;
}
// * * * * * * * * * * * * * * * * * * * * * * * * * * * * * * * * * * * * * //

dimensions      [0 1 -1 0 0 0 0];

internalField   nonuniform List<vector> 
22000
(
(1.0000010363334 -2.5961946332445e-05 0)
(1.0000267379783 -7.7547058090111e-05 0)
(1.0000761172543 -0.00012895216714401 0)
(1.0001502639329 -0.00018023071400703 0)
(1.0002496679868 -0.0002313593713277 0)
(1.000374285251 -0.00028226687925946 0)
(1.0005238196952 -0.00033286656542379 0)
(1.0006979639703 -0.00038310240010854 0)
(1.0008964649589 -0.0004329173281247 0)
(1.0011191103392 -0.00048223717626426 0)
(1.0013656545443 -0.00053088957247136 0)
(1.0016357679948 -0.00057867755343029 0)
(1.0019289709853 -0.00062532964909279 0)
(1.0022446854878 -0.00067070081881185 0)
(1.0025822151545 -0.00071459299147594 0)
(1.0029408792085 -0.00075707311220884 0)
(1.0033199122067 -0.00079797797205646 0)
(1.0037186759771 -0.00083758151649132 0)
(1.0041363704498 -0.00087552324614339 0)
(1.0045724507715 -0.00091235528704248 0)
(1.0050259880488 -0.00094720566553535 0)
(1.0054965779123 -0.00098130029073038 0)
(1.0059830034077 -0.0010126951283012 0)
(1.0064851797516 -0.0010442430482118 0)
(1.0070013535542 -0.0010715709207801 0)
(1.0075321544108 -0.0011012244271275 0)
(1.0080747341883 -0.0011231704998411 0)
(1.0086311849709 -0.0011524061779993 0)
(1.0091964118728 -0.0011658910409682 0)
(1.0097755178938 -0.0011982556159763 0)
(1.0000004793014 -7.6515696161722e-05 0)
(1.0000263483019 -0.00022880141738071 0)
(1.0000763760366 -0.00038071582574201 0)
(1.0001515428834 -0.00053236335696849 0)
(1.0002523716933 -0.00068366215409674 0)
(1.0003789015724 -0.00083439932132114 0)
(1.0005309032136 -0.00098430935152449 0)
(1.0007081092426 -0.0011332082691054 0)
(1.0009102696795 -0.0012809091070178 0)
(1.0011371713717 -0.0014271793668467 0)
(1.0013885459037 -0.0015715077040593 0)
(1.0016640726551 -0.001713314635957 0)
(1.0019632493812 -0.0018518075250384 0)
(1.0022855434593 -0.0019865583144812 0)
(1.0026302175053 -0.0021169864890342 0)
(1.0029966838537 -0.0022432742731913 0)
(1.0033840622023 -0.0023649421122954 0)
(1.0037918981529 -0.0024827679298399 0)
(1.0042191104332 -0.0025957062605505 0)
(1.0046655546825 -0.0027053336543528 0)
(1.0051296718329 -0.0028091371117017 0)
(1.0056119550054 -0.002910627771169 0)
(1.0061098119521 -0.003004222057002 0)
(1.0066251501617 -0.0030981006602874 0)
(1.007153224142 -0.0031797259473796 0)
(1.0076990557883 -0.0032678381601172 0)
(1.0082532630045 -0.0033337204420995 0)
(1.0088275904921 -0.0034202007271384 0)
(1.0094027466133 -0.0034614931230166 0)
(1.0100048670216 -0.0035563049844538 0)
(1.0000004950909 -0.0001253695871792 0)
(1.0000276356407 -0.00037531458433857 0)
(1.0000800302066 -0.00062475165917462 0)
(1.0001585650039 -0.00087381842531635 0)
(1.0002637137395 -0.0011224529522808 0)
(1.0003955371632 -0.0013703577890652 0)
(1.0005538501438 -0.0016170806414264 0)
(1.0007384226262 -0.001862251962076 0)
(1.0009490003833 -0.0021054900088706 0)
(1.0011853577902 -0.0023463718665136 0)
(1.0014471803381 -0.0025840648607725 0)
(1.0017341509279 -0.0028176669471846 0)
(1.0020457331186 -0.0030459364723414 0)
(1.0023814704641 -0.0032682219404943 0)
(1.0027405749367 -0.0034835800110688 0)
(1.003122617187 -0.0036923024080473 0)
(1.0035265441375 -0.0038935466835595 0)
(1.0039522033197 -0.0040885698576426 0)
(1.0043980557444 -0.0042755742602322 0)
(1.0048646196208 -0.0044571850497191 0)
(1.0053492806542 -0.004629154727281 0)
(1.0058540513345 -0.0047974041091042 0)
(1.006373984489 -0.0049525006319693 0)
(1.0069144348201 -0.0051082810570675 0)
(1.0074654081735 -0.0052435135607444 0)
(1.0080396994227 -0.0053899432231563 0)
(1.0086161675894 -0.0054988628370665 0)
(1.0092240740143 -0.0056429031563995 0)
(1.009817903867 -0.0057103968054603 0)
(1.0104630918353 -0.0058688656243902 0)
(1.0000004934695 -0.00017373684310245 0)
(1.0000291310332 -0.00052062951598849 0)
(1.00008444465 -0.00086666785678749 0)
(1.0001672862503 -0.0012120652759183 0)
(1.0002781105676 -0.0015569637164036 0)
(1.0004170067634 -0.0019011072136042 0)
(1.0005838312621 -0.0022438609879891 0)
(1.0007783912135 -0.0025845864437287 0)
(1.0010004213239 -0.0029226073559202 0)
(1.0012496786663 -0.0032572616856204 0)
(1.0015257856005 -0.0035874224967071 0)
(1.0018284308919 -0.0039119604952942 0)
(1.0021570306378 -0.0042292967291495 0)
(1.0025112383607 -0.0045386533773027 0)
(1.002890198128 -0.0048387536795862 0)
(1.0032937113945 -0.0051299979924512 0)
(1.0037204850199 -0.0054111043094229 0)
(1.0041708036251 -0.005683783444393 0)
(1.004642480952 -0.0059453690105734 0)
(1.0051369879647 -0.0061995964362666 0)
(1.0056502088571 -0.0064403111441112 0)
(1.0061863331936 -0.0066760810252668 0)
(1.0067370557475 -0.0068932381136704 0)
(1.0073126626756 -0.0071118644744227 0)
(1.0078956718384 -0.0073010890415846 0)
(1.0085099867465 -0.0075070733899481 0)
(1.0091177015645 -0.0076588684377676 0)
(1.0097730956031 -0.0078622691902332 0)
(1.0103933087473 -0.0079544556936316 0)
(1.0110998194141 -0.0081796608502718 0)
(1.0000004894033 -0.00022191616330965 0)
(1.0000308874174 -0.00066577945079595 0)
(1.0000896443507 -0.0011082630576313 0)
(1.0001775776071 -0.0015496675736374 0)
(1.0002951304836 -0.001990538349664 0)
(1.0004424365517 -0.0024308086379753 0)
(1.0006194086764 -0.0028696713196139 0)
(1.0008259029971 -0.0033061256134582 0)
(1.0010616429288 -0.0037390860092255 0)
(1.0013263688019 -0.0041675932993778 0)
(1.0016196296457 -0.0045902540153699 0)
(1.0019411300126 -0.0050058182017383 0)
(1.0022902330892 -0.0054124943231392 0)
(1.0026667421236 -0.0058094886155724 0)
(1.0030697216914 -0.0061952213720343 0)
(1.0034992801148 -0.0065702027166839 0)
(1.0039538235805 -0.0069326175588795 0)
(1.0044342123125 -0.0072846085175766 0)
(1.0049374352539 -0.0076224929014626 0)
(1.005466206441 -0.0079512054716126 0)
(1.0060144851953 -0.008262452871454 0)
(1.0065892830919 -0.0085677702627193 0)
(1.0071779828544 -0.0088487331789002 0)
(1.0077972342081 -0.0091324641997139 0)
(1.0084199433165 -0.0093771862476438 0)
(1.0090843034934 -0.0096453770447638 0)
(1.0097309051575 -0.0098408340295532 0)
(1.0104461235858 -0.01010702058231 0)
(1.0110992471799 -0.010222939975184 0)
(1.0118834723363 -0.01052008670921 0)
(1.0000004808236 -0.00027007991657899 0)
(1.0000328205184 -0.00081134794219458 0)
(1.000095381419 -0.0013505364950318 0)
(1.0001889337902 -0.0018880484567523 0)
(1.000313908764 -0.0024250528854507 0)
(1.0004705003959 -0.002961832964367 0)
(1.0006586987926 -0.0034974170015811 0)
(1.0008784274843 -0.0040303353600408 0)
(1.0011294038558 -0.0045589632055812 0)
(1.0014113553315 -0.0050819781274034 0)
(1.0017237507043 -0.0055977506155603 0)
(1.0020663235391 -0.0061050293286812 0)
(1.0024383841289 -0.006601949948458 0)
(1.0028399302809 -0.0070878275232021 0)
(1.0032699432241 -0.0075608136349397 0)
(1.0037289194596 -0.0080215320645807 0)
(1.0042149141187 -0.0084675281213724 0)
(1.0047295047203 -0.0089013572645182 0)
(1.0052686930776 -0.0093181483237132 0)
(1.0058367229609 -0.0097241484697807 0)
(1.0064252332482 -0.010108647021906 0)
(1.0070446787839 -0.010486537029003 0)
(1.0076772349598 -0.010834006840378 0)
(1.0083472745492 -0.011186185162168 0)
(1.0090160982666 -0.011488859417776 0)
(1.0097391763954 -0.011823119269757 0)
(1.0104311670294 -0.012063882091206 0)
(1.0112171418877 -0.012397693244292 0)
(1.0119087789033 -0.012536943714741 0)
(1.012785548322 -0.012913002599524 0)
(1.0000004661153 -0.00031824210026161 0)
(1.0000348293046 -0.00095741401975646 0)
(1.0001013647901 -0.0015936267219417 0)
(1.0002007833215 -0.0022274046360301 0)
(1.0003335024374 -0.0028607781985558 0)
(1.0004997922125 -0.0034945537506541 0)
(1.0006997415416 -0.0041276048163156 0)
(1.0009333618497 -0.004757880358242 0)
(1.001200373305 -0.0053830791062351 0)
(1.0015004981324 -0.0060014467925109 0)
(1.0018331228612 -0.006611152968228 0)
(1.0021980276234 -0.007211075047024 0)
(1.0025944755055 -0.007799428377016 0)
(1.0030227079265 -0.0083757733562382 0)
(1.0034816259994 -0.0089380318730018 0)
(1.0039721994346 -0.0094869492659923 0)
(1.0044920922967 -0.010019317841661 0)
(1.0050437425842 -0.010538091742662 0)
(1.0056220202497 -0.011037023208066 0)
(1.006232978964 -0.011523805476444 0)
(1.0068655750666 -0.011984997566328 0)
(1.0075342997122 -0.01243929659829 0)
(1.008215296246 -0.012856788039618 0)
(1.0089419339481 -0.013281703397166 0)
(1.0096620769983 -0.013645658910504 0)
(1.0104512391966 -0.014050954847407 0)
(1.0111940890379 -0.014339522826837 0)
(1.0120604610435 -0.014747096601074 0)
(1.0127955266115 -0.014909938510163 0)
(1.0137783183072 -0.015373472643686 0)
(1.0000004437525 -0.00036627294221914 0)
(1.0000368133227 -0.0011036091697591 0)
(1.0001073036167 -0.0018369261990068 0)
(1.0002125525396 -0.0025668925687597 0)
(1.0003529631008 -0.003296649257155 0)
(1.0005288969584 -0.0040277085696834 0)
(1.0007405642098 -0.0047588031911551 0)
(1.0009880862047 -0.005487187531309 0)
(1.0012711977562 -0.0062097452034403 0)
(1.0015896271177 -0.0069242219680409 0)
(1.0019426813409 -0.0076286265070774 0)
(1.0023302087518 -0.0083221036543888 0)
(1.0027514365624 -0.0090031107859957 0)
(1.0032069025112 -0.0096715994545373 0)
(1.0036954382862 -0.01032530599429 0)
(1.0042185747321 -0.010965110111682 0)
(1.0047735569368 -0.011586935176923 0)
(1.0053638266302 -0.012194126050343 0)
(1.0059829989644 -0.012778860406037 0)
(1.0066392077284 -0.013350429248243 0)
(1.0073184074852 -0.013892322647638 0)
(1.0080396796351 -0.014427533122303 0)
(1.0087724017127 -0.014919260505687 0)
(1.0095601053617 -0.01542204008302 0)
(1.0103355832089 -0.015851419057071 0)
(1.0111968896371 -0.016333743237017 0)
(1.0119950914691 -0.016673483944745 0)
(1.0129502114104 -0.017162203703687 0)
(1.0137330277639 -0.017349701635654 0)
(1.014833951377 -0.017910827553636 0)
(1.0000004128595 -0.00041393110657225 0)
(1.0000386736827 -0.0012492158988668 0)
(1.0001129096704 -0.0020792478192223 0)
(1.0002236729603 -0.0029048648689707 0)
(1.0003713510162 -0.0037305719082063 0)
(1.0005564128674 -0.0045587747337475 0)
(1.0007792126324 -0.0053880838979939 0)
(1.0010400045338 -0.006214949795081 0)
(1.0013385523203 -0.0070353056907312 0)
(1.0016746045868 -0.0078463326903953 0)
(1.0020473963093 -0.0086459237655434 0)
(1.0024568692894 -0.009433635702617 0)
(1.00290223167 -0.010208337270162 0)
(1.0033843726541 -0.010970523413399 0)
(1.0039020726124 -0.011717794810401 0)
(1.0044575120924 -0.012451183770062 0)
(1.0050475027106 -0.013165631945843 0)
(1.0056766295099 -0.013864873680737 0)
(1.0063371561424 -0.014539313388888 0)
(1.0070395499568 -0.015200005106386 0)
(1.0077664969673 -0.015827019601061 0)
(1.0085421725138 -0.016448167933304 0)
(1.0093285649959 -0.017018939732828 0)
(1.0101803980242 -0.017605448725944 0)
(1.0110140042997 -0.01810516619184 0)
(1.0119521419253 -0.018671479421226 0)
(1.0128091990738 -0.019066677512211 0)
(1.0138600443839 -0.019645142833866 0)
(1.0146943616714 -0.019859329508512 0)
(1.0159240347126 -0.020529662185579 0)
(1.0000003722693 -0.00046089509189887 0)
(1.0000403157024 -0.0013932624257572 0)
(1.000117906673 -0.0023189818191887 0)
(1.0002335987299 -0.0032390877324084 0)
(1.0003877640038 -0.0041596993673852 0)
(1.0005809940544 -0.0050843033763734 0)
(1.0008138092754 -0.006011411730892 0)
(1.0010866196434 -0.00693656875388 0)
(1.0013992338364 -0.0078546300989054 0)
(1.0017514373779 -0.0087621535360456 0)
(1.0021424046593 -0.0096569665886585 0)
(1.0025721986381 -0.010539185666795 0)
(1.0030400301173 -0.011408264692695 0)
(1.0035471949273 -0.012265397523053 0)
(1.0040924478864 -0.01310810635089 0)
(1.0046787043473 -0.013937598647527 0)
(1.0053023443365 -0.014747733048593 0)
(1.0059692251929 -0.015542634523706 0)
(1.0066701961533 -0.016310750989963 0)
(1.0074182834876 -0.017065062761392 0)
(1.0081927042299 -0.017781886832452 0)
(1.0090231611042 -0.018494377122063 0)
(1.0098637663729 -0.019149487940015 0)
(1.0107812965918 -0.019826214817146 0)
(1.0116745310283 -0.020401902259375 0)
(1.0126926971284 -0.021060051074154 0)
(1.0136110702705 -0.021515946227087 0)
(1.0147631381352 -0.022193917322313 0)
(1.0156521509832 -0.022437971479978 0)
(1.0170195797329 -0.023230557771876 0)
(1.0000003217826 -0.00050679276714541 0)
(1.0000416521372 -0.0015346121149198 0)
(1.000122038393 -0.0025542435050101 0)
(1.0002418247585 -0.0035669456686078 0)
(1.0004013681787 -0.0045806929452823 0)
(1.0006013968014 -0.0056002351614231 0)
(1.0008426176145 -0.0066240138380585 0)
(1.0011256176205 -0.0076465755812628 0)
(1.0014502670036 -0.0086615829728346 0)
(1.0018164059384 -0.0096649197994111 0)
(1.0022231632027 -0.010654403293685 0)
(1.0026707510688 -0.011630857117958 0)
(1.0031584095665 -0.012594496218994 0)
(1.0036878920821 -0.013547367648823 0)
(1.0042579639728 -0.014486983021434 0)
(1.0048723474326 -0.015414745885477 0)
(1.0055270205033 -0.016323358551996 0)
(1.0062292090557 -0.017217320193666 0)
(1.0069683495744 -0.018082996581813 0)
(1.0077601779107 -0.018935399060558 0)
(1.0085803689802 -0.019746858939194 0)
(1.0094644395684 -0.020556290735984 0)
(1.0103583619217 -0.021301418996675 0)
(1.0113415555455 -0.022075307998211 0)
(1.0122945533078 -0.022733251824173 0)
(1.0133942966611 -0.023491789847533 0)
(1.0143752953685 -0.024014620584275 0)
(1.0156323863052 -0.024802838931029 0)
(1.0165786446245 -0.025081250386025 0)
(1.0180910628512 -0.026010513756757 0)
(1.0000002608112 -0.00055122902938976 0)
(1.0000426068846 -0.0016720469863841 0)
(1.0001250804791 -0.0027830119634704 0)
(1.0002479072604 -0.0038856339571638 0)
(1.0004114306694 -0.0049899671620401 0)
(1.0006165270555 -0.0061021972855057 0)
(1.0008641070077 -0.007220727520064 0)
(1.001154952814 -0.008339027886255 0)
(1.001489012189 -0.0094494672441008 0)
(1.0018661971694 -0.010547214025381 0)
(1.0022856089235 -0.011630134610919 0)
(1.0027476344976 -0.012699903954206 0)
(1.0032515760451 -0.013757673883951 0)
(1.0037996826086 -0.014806492545216 0)
(1.0043907867639 -0.01584394398782 0)
(1.0050294505695 -0.016871638563682 0)
(1.0057113483431 -0.017881098258812 0)
(1.0064450597608 -0.018877131015717 0)
(1.0072188013366 -0.019844019135442 0)
(1.0080508875204 -0.020798743111299 0)
(1.0089138158211 -0.021709708651601 0)
(1.009848613014 -0.02262160813559 0)
(1.0107936652358 -0.023462813630501 0)
(1.0118406035444 -0.024340925701324 0)
(1.0128523377542 -0.025088157582586 0)
(1.0140331332311 -0.025955954537189 0)
(1.0150771334019 -0.026553089089146 0)
(1.0164408285626 -0.027462876902444 0)
(1.0174461329371 -0.027781531933174 0)
(1.0191088490028 -0.02886314126627 0)
(1.0000001899404 -0.00059381114658175 0)
(1.000043117409 -0.0018043453858389 0)
(1.0001268467547 -0.0030032580186227 0)
(1.0002514798457 -0.0041923354808596 0)
(1.0004173475193 -0.0053839148443983 0)
(1.0006254825468 -0.0065857765230393 0)
(1.0008770114933 -0.0077963207121145 0)
(1.0011729257609 -0.0090078763169298 0)
(1.001513265294 -0.01021143460157 0)
(1.0018980290195 -0.011401417381136 0)
(1.0023263108792 -0.012575802422747 0)
(1.0027986919863 -0.013737254099695 0)
(1.0033145768582 -0.014888032222043 0)
(1.003876727277 -0.016032327590955 0)
(1.0044841282122 -0.017167888718403 0)
(1.0051421536341 -0.018296541954694 0)
(1.0058463740233 -0.019408647023775 0)
(1.0066065264521 -0.02050921138191 0)
(1.0074101213281 -0.02158058744568 0)
(1.0082773764603 -0.022641390307968 0)
(1.0091789153407 -0.02365673748686 0)
(1.010159446831 -0.024676124676583 0)
(1.01115277817 -0.025620104057961 0)
(1.0122586140047 -0.026608815174644 0)
(1.0133283600976 -0.027453895529167 0)
(1.0145853414199 -0.028438582692668 0)
(1.0156951588888 -0.029120729683502 0)
(1.0171593767308 -0.030159969676891 0)
(1.0182326821942 -0.030531857474065 0)
(1.0200433614419 -0.031779121993207 0)
(1.0000001093949 -0.00063417165707807 0)
(1.0000431397654 -0.0019303536809237 0)
(1.0001272022092 -0.0032130628408905 0)
(1.0002522729264 -0.0044843829911364 0)
(1.0004186721837 -0.0057591116659072 0)
(1.0006275923736 -0.0070467663467264 0)
(1.0008803824359 -0.0083457817603894 0)
(1.0011782516678 -0.0096472961581392 0)
(1.0015213442502 -0.010940857075173 0)
(1.0019097579736 -0.012220118889857 0)
(1.0023425991893 -0.013483234160023 0)
(1.0028206582444 -0.01473398662446 0)
(1.003343478913 -0.015975906173705 0)
(1.0039143491693 -0.017214460880602 0)
(1.0045324752559 -0.018447657899452 0)
(1.0052040374618 -0.0196775619175 0)
(1.0059246311195 -0.020893390629077 0)
(1.0067050889575 -0.02210030746019 0)
(1.0075324695609 -0.023278785734492 0)
(1.0084286687323 -0.024449035064276 0)
(1.0093630280215 -0.025573006115826 0)
(1.0103831629533 -0.026704909324189 0)
(1.0114199377451 -0.02775786906224 0)
(1.0125786041057 -0.02886373397244 0)
(1.0137037171597 -0.029815490701585 0)
(1.0150302549232 -0.030924566877168 0)
(1.0162078047901 -0.031703903341038 0)
(1.0177630568409 -0.032879523382489 0)
(1.0189156877676 -0.033322954280537 0)
(1.0208656901417 -0.034745642277939 0)
(1.0000000206597 -0.00067198561187355 0)
(1.0000426482596 -0.0020490391375811 0)
(1.0001260687806 -0.0034107048517605 0)
(1.0002501298819 -0.0047593810335687 0)
(1.0004151382082 -0.006112474867215 0)
(1.0006224444752 -0.0074813634113243 0)
(1.0008736217766 -0.0088645539022014 0)
(1.0011701013406 -0.010251959285561 0)
(1.001512140332 -0.011631635601453 0)
(1.0018999438284 -0.012996459408402 0)
(1.0023326470087 -0.01434482123273 0)
(1.0028112602044 -0.015681742614979 0)
(1.0033354954235 -0.017012174380974 0)
(1.0039091768486 -0.018342984222162 0)
(1.0045317816536 -0.019672537348974 0)
(1.005210302883 -0.021003161995087 0)
(1.0059404428185 -0.022322976467964 0)
(1.0067341306882 -0.023637278688925 0)
(1.0075781020675 -0.024924713140427 0)
(1.0084959209178 -0.026207122848036 0)
(1.009455836116 -0.027443302965275 0)
(1.0105083480648 -0.028692369775495 0)
(1.0115816310477 -0.029859880899697 0)
(1.0127864275772 -0.031089736383575 0)
(1.0139608628583 -0.032155946592223 0)
(1.0153512401238 -0.03339864002956 0)
(1.0165920188124 -0.034285113368931 0)
(1.0182342498159 -0.035608929232547 0)
(1.019463880316 -0.036135456580299 0)
(1.0215512972471 -0.03774894825437 0)
(0.99999992429199 -0.00070698051640013 0)
(1.0000416356633 -0.0021595196423234 0)
(1.0001234224723 -0.0035947128522126 0)
(1.0002449961862 -0.0050152854133661 0)
(1.0004066455654 -0.006441371428255 0)
(1.0006098739079 -0.0078863069725581 0)
(1.0008564745579 -0.0093487078977203 0)
(1.0011480993253 -0.010817241147084 0)
(1.0014851224749 -0.012278441311422 0)
(1.0018678612458 -0.013724406233299 0)
(1.002295491794 -0.015153825855289 0)
(1.0027692506836 -0.016573063997037 0)
(1.0032890366599 -0.017988628778554 0)
(1.0038592143232 -0.019408896102201 0)
(1.0044795625487 -0.020832688393278 0)
(1.0051578933133 -0.022262630925055 0)
(1.0058900712702 -0.023685796223237 0)
(1.0066891343262 -0.025107628476119 0)
(1.0075415892444 -0.026504991937509 0)
(1.0084726851149 -0.027901444750744 0)
(1.009449723174 -0.029252654710897 0)
(1.0105261091995 -0.030622799701911 0)
(1.0116275291407 -0.031909895801654 0)
(1.0128702285618 -0.033269995415495 0)
(1.0140861957642 -0.034458200134806 0)
(1.0155330027644 -0.035843382377811 0)
(1.0168304860657 -0.036847086167526 0)
(1.018553856259 -0.038330816522694 0)
(1.0198562697966 -0.03895276507832 0)
(1.0220770073103 -0.04077240019972 0)
(0.99999982244796 -0.00073894495687269 0)
(1.0000401110008 -0.0022610950210258 0)
(1.0001192829085 -0.0037639184684983 0)
(1.0002369062092 -0.0052504747761567 0)
(1.0003932434216 -0.0067437079949577 0)
(1.0005899412714 -0.0082589875590108 0)
(1.0008290049167 -0.0097950717578597 0)
(1.0011122994837 -0.011339374308678 0)
(1.0014403150556 -0.012876895254997 0)
(1.0018134808489 -0.014398960087578 0)
(1.0022310205045 -0.015904615402921 0)
(1.0026943977241 -0.017401655047345 0)
(1.0032037060225 -0.018898263880157 0)
(1.0037638460451 -0.020404419804847 0)
(1.0043749127197 -0.021919497123545 0)
(1.0050455329514 -0.023446462266345 0)
(1.0057717734929 -0.02497140006275 0)
(1.0065677796443 -0.026499948546864 0)
(1.0074199175386 -0.028007233837162 0)
(1.0083551142086 -0.02951866024886 0)
(1.0093398821524 -0.030986779785602 0)
(1.0104305109704 -0.032481040040912 0)
(1.0115504447793 -0.033891936885816 0)
(1.0128214000125 -0.035387787776348 0)
(1.0140695402722 -0.036704974096645 0)
(1.0155637127097 -0.038240912498808 0)
(1.0169094626147 -0.039371785078522 0)
(1.0187062180666 -0.041026726468375 0)
(1.0200749921239 -0.041756947024536 0)
(1.0224224927383 -0.043797259401097 0)
(0.99999971621656 -0.00076773531992171 0)
(1.000038098484 -0.0023532692533217 0)
(1.0001137139611 -0.003917492170179 0)
(1.0002259795665 -0.0054637982976144 0)
(1.000375123906 -0.007017989742433 0)
(1.000562922401 -0.0085975179703417 0)
(1.0007915771016 -0.010201314191213 0)
(1.0010631544152 -0.011815544920884 0)
(1.0013782558362 -0.013423679750894 0)
(1.0017374180732 -0.015016284285175 0)
(1.0021399142272 -0.016592813323344 0)
(1.0025874260258 -0.01816255790569 0)
(1.0030802419396 -0.019735479702492 0)
(1.0036237772383 -0.021323234597021 0)
(1.0042184517926 -0.022925836424263 0)
(1.0048736734594 -0.02454664752437 0)
(1.0055857628618 -0.026170820816036 0)
(1.00636991356 -0.027804278696445 0)
(1.0072124902852 -0.029420425501264 0)
(1.0081419864047 -0.03104671966157 0)
(1.0091243800117 -0.032632540962068 0)
(1.0102186888068 -0.03425293582753 0)
(1.0113464554633 -0.035790805940923 0)
(1.0126347706347 -0.037426980243823 0)
(1.0139042845932 -0.038879294219005 0)
(1.0154352458145 -0.040573516213197 0)
(1.016819033969 -0.041841035610581 0)
(1.0186796659942 -0.043677893889532 0)
(1.0201061058097 -0.044529328800452 0)
(1.0225713132792 -0.046803500005506 0)
(0.9999996081127 -0.0007932745839589 0)
(1.0000356328464 -0.0024357498857108 0)
(1.0001068120127 -0.0040549445041253 0)
(1.000212406846 -0.0056545802543033 0)
(1.0003526013135 -0.0072633308841394 0)
(1.0005292794858 -0.0089007533734963 0)
(1.0007448193127 -0.010565979391818 0)
(1.0010014687019 -0.01224394461419 0)
(1.0012999351499 -0.013916606923168 0)
(1.0016408542931 -0.015573787666109 0)
(1.0020235519359 -0.017215396483564 0)
(1.0024499056199 -0.018852265764811 0)
(1.0029203967711 -0.020496217236427 0)
(1.0034409063212 -0.022160636760346 0)
(1.0040121915864 -0.023846263974769 0)
(1.0046443655144 -0.025556908521873 0)
(1.005334074595 -0.027276861077303 0)
(1.006097437536 -0.029012423132923 0)
(1.0069210030438 -0.030735323181169 0)
(1.0078346243033 -0.032475255963885 0)
(1.0088040759207 -0.034178447240434 0)
(1.0098908129402 -0.035925805170062 0)
(1.0110149323451 -0.037592637284636 0)
(1.0123085844662 -0.039372574523423 0)
(1.0135874816431 -0.040964966120549 0)
(1.0151430319788 -0.042824180938246 0)
(1.0165532282179 -0.044236884025088 0)
(1.01846630457 -0.046266309325548 0)
(1.019940352539 -0.04725112401454 0)
(1.0225112242266 -0.049771744019853 0)
(0.99999949892265 -0.00081554449390142 0)
(1.0000327528045 -0.0025084264797777 0)
(1.0000986935504 -0.0041760976277288 0)
(1.0001964247039 -0.0058225881281893 0)
(1.0003260747218 -0.0074794177918066 0)
(1.0004896066586 -0.0091682487609239 0)
(1.0006895496305 -0.010888443414665 0)
(1.0009283091894 -0.012623736681313 0)
(1.0012066966782 -0.014354608046749 0)
(1.001525428039 -0.01607014491121 0)
(1.0018838910305 -0.017770748842166 0)
(1.0022841125968 -0.019468804646233 0)
(1.0027267774846 -0.021178066553895 0)
(1.0032181376788 -0.02291366499451 0)
(1.0037593283828 -0.024677175868397 0)
(1.0043610243689 -0.026472869702333 0)
(1.0050203221318 -0.028284315578872 0)
(1.0057540480309 -0.030118211419776 0)
(1.0065492033782 -0.031944786522549 0)
(1.00743663099 -0.033795993740849 0)
(1.0083824428535 -0.035615128298722 0)
(1.0094498121786 -0.03748904208077 0)
(1.0105585466944 -0.039285514671142 0)
(1.0118442020682 -0.041211569442343 0)
(1.0131202742226 -0.04294708816764 0)
(1.0146853742496 -0.044977668100318 0)
(1.0161104427849 -0.046541258700848 0)
(1.018060667174 -0.048775349850885 0)
(1.0195722008661 -0.049904430629415 0)
(1.0222348735995 -0.052682559304422 0)
(0.9999993892971 -0.00083458099964758 0)
(1.000029490372 -0.0025713437515525 0)
(1.00008946792 -0.0042810212717856 0)
(1.0001782866425 -0.0059679308481901 0)
(1.0002959992779 -0.0076663808145132 0)
(1.0004445922203 -0.0094001086728026 0)
(1.0006267139919 -0.011168732999536 0)
(1.0008449025068 -0.012954829445491 0)
(1.0011000946112 -0.014737456651753 0)
(1.0013930615223 -0.016504978782862 0)
(1.0017232811163 -0.018258322646084 0)
(1.0020928361898 -0.02001139097454 0)
(1.0025026554018 -0.021779934709317 0)
(1.0029591738179 -0.023580771763702 0)
(1.0034640269624 -0.025416479893137 0)
(1.0040281580356 -0.027291691871091 0)
(1.0046494129726 -0.029189566801534 0)
(1.0053448604601 -0.031116984866525 0)
(1.0061025236251 -0.033043188204076 0)
(1.0069534402806 -0.035001974676685 0)
(1.0078651053361 -0.036934491227546 0)
(1.0089009825362 -0.038932936379472 0)
(1.0099825974513 -0.040858449933344 0)
(1.0112461794816 -0.042931126910173 0)
(1.0125069561061 -0.044811383844762 0)
(1.0140649680352 -0.047017389371351 0)
(1.015492378594 -0.048735545508211 0)
(1.0174593173286 -0.051183667871775 0)
(1.0190008797238 -0.052463972582854 0)
(1.0217236018321 -0.055512139896865 0)
(0.99999927914547 -0.00085049961661995 0)
(1.0000259135662 -0.0026247681785946 0)
(1.0000793069368 -0.0043700769244293 0)
(1.0001583194831 -0.0060909985831894 0)
(1.0002629204586 -0.0078245905856155 0)
(1.0003950512901 -0.0095966570804424 0)
(1.0005574368096 -0.011407104288992 0)
(1.0007527026268 -0.013237373959669 0)
(1.0009819473914 -0.015065150940139 0)
(1.0012459666597 -0.016878066229901 0)
(1.0015444011527 -0.018677600728851 0)
(1.0018792468602 -0.020479106161994 0)
(1.0022517831671 -0.022300413172792 0)
(1.0026682966898 -0.024159907596523 0)
(1.0031312116405 -0.02606142255917 0)
(1.0036511451689 -0.028009678413826 0)
(1.0042274102698 -0.029987967561517 0)
(1.004876212327 -0.032002702676297 0)
(1.0055880720787 -0.034023209604817 0)
(1.0063921045598 -0.036083820077936 0)
(1.0072600215055 -0.038125484536692 0)
(1.0082516375335 -0.040243474503045 0)
(1.0092954298136 -0.042295356238352 0)
(1.0105214413675 -0.044511197502717 0)
(1.0117556655971 -0.046535471763764 0)
(1.0132884283519 -0.048916290195274 0)
(1.0147066790558 -0.050789838300162 0)
(1.0166674815305 -0.053453189960209 0)
(1.018224933144 -0.054886407742088 0)
(1.0209836433264 -0.058203961631659 0)
(0.99999917118349 -0.00086355493298287 0)
(1.0000222099108 -0.002669458777467 0)
(1.0000686879132 -0.0044444584187159 0)
(1.0001373073174 -0.0061932486798659 0)
(1.0002278740724 -0.0079555218482527 0)
(1.0003422360578 -0.0097592238236366 0)
(1.0004832232076 -0.011604705089108 0)
(1.0006535563757 -0.013472398976526 0)
(1.0008545345563 -0.015338680257751 0)
(1.0010869249936 -0.017190388237412 0)
(1.0013505965875 -0.019029487064498 0)
(1.0016472612719 -0.02087260034022 0)
(1.0019786766135 -0.022739671279895 0)
(1.0023505585702 -0.024650539747147 0)
(1.0027665801268 -0.026610676866858 0)
(1.0032362057317 -0.028624600599559 0)
(1.0037614243944 -0.030676542030614 0)
(1.0043556940744 -0.032771409256597 0)
(1.0050148083324 -0.034880308262669 0)
(1.0057616651769 -0.03703559707807 0)
(1.0065784337472 -0.039181685353717 0)
(1.0075117864455 -0.041411840454524 0)
(1.0085108636001 -0.043586918800714 0)
(1.0096793040487 -0.04593865583576 0)
(1.0108827861293 -0.048105039908413 0)
(1.0123616618958 -0.050657251600162 0)
(1.0137754482995 -0.052682560968647 0)
(1.0156897178002 -0.055571814270705 0)
(1.0172828618738 -0.057133470936736 0)
(1.0200212077747 -0.060783306512453 0)
(0.99999904557454 -0.00087424359972262 0)
(1.0000184925297 -0.0027070036664534 0)
(1.0000580966505 -0.0045069672258265 0)
(1.0001162852988 -0.006279053274087 0)
(1.000192394253 -0.0080651646384644 0)
(1.0002879365668 -0.0098952961640673 0)
(1.0004058728082 -0.011770444345301 0)
(1.0005492020918 -0.013670315812869 0)
(1.0007195472427 -0.015570409039233 0)
(1.0009178219062 -0.017456735897358 0)
(1.0011442147898 -0.019331689983766 0)
(1.001399959351 -0.021212989872596 0)
(1.0016871548791 -0.023122644230561 0)
(1.0020105356085 -0.025081809213496 0)
(1.0023751929761 -0.027097985543151 0)
(1.0027889244147 -0.029175326432947 0)
(1.0032573124667 -0.03130008639988 0)
(1.0037896701741 -0.033474725881894 0)
(1.0043895241016 -0.035674637892195 0)
(1.0050693345458 -0.037927043224663 0)
(1.0058285412933 -0.040185865860705 0)
(1.0066889673753 -0.042534115443375 0)
(1.0076392434345 -0.0448496367232 0)
(1.008725522423 -0.047347493473604 0)
(1.0099016607237 -0.049685302575015 0)
(1.0112820664961 -0.052427897410622 0)
(1.0127138367608 -0.054644201345213 0)
(1.0145086386061 -0.057816554298935 0)
(1.0162244519675 -0.059534700367043 0)
(1.0188690040914 -0.063825933715913 0)
(0.99999885035014 -0.00088406111346219 0)
(1.0000139178564 -0.0027420378416746 0)
(1.0000461836513 -0.0045662706842281 0)
(1.0000937201487 -0.0063621899508417 0)
(1.0001553919606 -0.0081738310035574 0)
(1.0002319928799 -0.010033092693884 0)
(1.0003265400977 -0.011941047846136 0)
(1.0004422949753 -0.013876345210728 0)
(1.0005815188151 -0.015812966159312 0)
(1.0007451375316 -0.017736842033037 0)
(1.0009337496288 -0.019651250386366 0)
(1.0011483432282 -0.021575456938085 0)
(1.0013911648971 -0.023533961881797 0)
(1.0016659985731 -0.025549530885625 0)
(1.0019787267436 -0.027631696997406 0)
(1.0023357671018 -0.029783962322786 0)
(1.0027453600068 -0.031994638135742 0)
(1.0032138862194 -0.034263007888525 0)
(1.0037510689279 -0.036570235593444 0)