/*--------------------------------*- C++ -*----------------------------------*\
| =========                 |                                                 |
| \\      /  F ield         | OpenFOAM: The Open Source CFD Toolbox           |
|  \\    /   O peration     | Version:  2112                                  |
|   \\  /    A nd           | Website:  www.openfoam.com                      |
|    \\/     M anipulation  |                                                 |
\*---------------------------------------------------------------------------*/
FoamFile
{
    version     2.0;
    format      ascii;
    arch        "LSB;label=32;scalar=64";
    class       volVectorField;
    location    "4.5";
    object      U;
}
// * * * * * * * * * * * * * * * * * * * * * * * * * * * * * * * * * * * * * //

dimensions      [0 1 -1 0 0 0 0];

internalField   nonuniform List<vector> 
22000
(
(1.00000202754 -4.9038948685165e-05 0)
(1.0000501572091 -0.00014433317223324 0)
(1.0001417455931 -0.0002365723616839 0)
(1.0002772283894 -0.00032558135642573 0)
(1.0004557510428 -0.00041123507044658 0)
(1.0006755898034 -0.00049344616790038 0)
(1.0009347498506 -0.000572144579715 0)
(1.0012313164376 -0.00064730616908901 0)
(1.0015635309967 -0.00071897385898949 0)
(1.0019297743651 -0.00078728821797654 0)
(1.002328506398 -0.00085239148832584 0)
(1.0027582502176 -0.00091442013801926 0)
(1.0032175258266 -0.00097339208077388 0)
(1.0037048877592 -0.0010294039865121 0)
(1.0042188803843 -0.0010825116195947 0)
(1.0047582132336 -0.0011331157360163 0)
(1.0053216897364 -0.001181480869815 0)
(1.0059084824439 -0.0012283151782531 0)
(1.0065177634336 -0.0012735870464054 0)
(1.0071491301309 -0.0013179000947503 0)
(1.0078016693069 -0.0013602366967215 0)
(1.0084750598398 -0.0014014129612621 0)
(1.0091676133159 -0.0014390612614683 0)
(1.0098791362862 -0.0014756160017183 0)
(1.0106064833931 -0.0015059779730049 0)
(1.0113502341349 -0.0015369412465059 0)
(1.0121047833796 -0.0015566951193332 0)
(1.0128733927741 -0.0015831105986181 0)
(1.0136461312947 -0.0015879604694683 0)
(1.0144325722998 -0.0016158647525619 0)
(1.0000009825467 -0.00014381888507927 0)
(1.0000486541711 -0.00042374702491057 0)
(1.0001399740431 -0.00069514979288366 0)
(1.000275282325 -0.00095740045092134 0)
(1.0004538548661 -0.001210046627588 0)
(1.0006741358273 -0.0014527824447015 0)
(1.0009342525142 -0.0016853717196069 0)
(1.0012323683905 -0.0019077155451642 0)
(1.0015667630322 -0.0021199156701096 0)
(1.0019358615546 -0.002322374104289 0)
(1.0023381534061 -0.0025155066036274 0)
(1.0027722272349 -0.0026996963004756 0)
(1.00323661599 -0.0028749594495605 0)
(1.0037299499229 -0.0030415489930583 0)
(1.0042507348252 -0.0031996347930841 0)
(1.0047978137614 -0.0033504192860894 0)
(1.0053698831828 -0.0034947097070828 0)
(1.0059664002034 -0.0036346018154863 0)
(1.0065862401748 -0.0037700625134611 0)
(1.0072296105434 -0.0039028989963858 0)
(1.0078948240042 -0.0040301782872733 0)
(1.0085829152498 -0.0041541335646109 0)
(1.0092902302005 -0.0042677893798188 0)
(1.0100196841653 -0.004377972032634 0)
(1.0107633190984 -0.0044700537252646 0)
(1.0115290262068 -0.0045634793320664 0)
(1.0122998842143 -0.0046244950895112 0)
(1.0130964951664 -0.0047039044972649 0)
(1.0138826487128 -0.0047213033013417 0)
(1.0147087155553 -0.0048031610841018 0)
(1.000001005362 -0.00023322721833678 0)
(1.0000493793478 -0.00068784704945647 0)
(1.0001419591714 -0.0011293317307291 0)
(1.0002789892312 -0.0015565685240471 0)
(1.0004597660538 -0.0019687282951916 0)
(1.000682856085 -0.0023652514175848 0)
(1.0009465261459 -0.0027457133089058 0)
(1.0012490700467 -0.0031099212930186 0)
(1.0015888643925 -0.0034580158212859 0)
(1.0019644439427 -0.0037906426712777 0)
(1.0023743783377 -0.0041084695336472 0)
(1.0028173853204 -0.0044120984134713 0)
(1.0032920479148 -0.0047015009935028 0)
(1.0037971529421 -0.0049770551472593 0)
(1.0043311795095 -0.0052390115373649 0)
(1.0048932188333 -0.0054893757236641 0)
(1.0054817993188 -0.0057294611725556 0)
(1.0060968676544 -0.0059627716703917 0)
(1.0067367779326 -0.0061892047452026 0)
(1.0074027823965 -0.0064118530497115 0)
(1.0080917972187 -0.0066257252832591 0)
(1.0088072347718 -0.0068346438239657 0)
(1.0095419282694 -0.0070266417683858 0)
(1.0103043691863 -0.0072133774472107 0)
(1.0110779493029 -0.0073698274167391 0)
(1.0118838159705 -0.007529306238257 0)
(1.0126843372378 -0.0076340329497097 0)
(1.013531979403 -0.0077707888127384 0)
(1.0143416142486 -0.0078020277872632 0)
(1.0152400814733 -0.0079435189991819 0)
(1.0000009968377 -0.00031841219361932 0)
(1.0000497823236 -0.00093976060451002 0)
(1.0001433053167 -0.0015439028111333 0)
(1.0002819121569 -0.0021293247373656 0)
(1.0004650085415 -0.0026948752993542 0)
(1.0006912947628 -0.0032397724225487 0)
(1.0009591760382 -0.0037634206070708 0)
(1.0012670990923 -0.0042655451147224 0)
(1.0016135734464 -0.0047463301331683 0)
(1.0019972965256 -0.0052066654895176 0)
(1.0024169580281 -0.0056474588645552 0)
(1.0028714652194 -0.0060695198692002 0)
(1.0033594788191 -0.0064727508677299 0)
(1.0038800215747 -0.0068576447382508 0)
(1.00443154572 -0.0072244931119352 0)
(1.0050135117314 -0.0075761057672349 0)
(1.0056242124119 -0.0079142315037136 0)
(1.0062643113806 -0.0082438105680681 0)
(1.0069314209141 -0.0085645296442368 0)
(1.0076283195352 -0.0088808776865295 0)
(1.0083499176487 -0.0091855336758102 0)
(1.0091030699777 -0.009484239537105 0)
(1.0098755347878 -0.0097594167131192 0)
(1.0106838618823 -0.010028365238573 0)
(1.0114990010095 -0.010254176257218 0)
(1.0123612586218 -0.010486098825425 0)
(1.0132032297127 -0.010638875004066 0)
(1.0141232543886 -0.01084036548951 0)
(1.0149659901661 -0.010887809657895 0)
(1.0159680211646 -0.011098369269528 0)
(1.0000009806643 -0.00039921351515817 0)
(1.0000499821636 -0.0011792390319079 0)
(1.0001441341489 -0.0019387096951741 0)
(1.0002839367949 -0.0026757436770551 0)
(1.000468961967 -0.0033889121121425 0)
(1.0006980977357 -0.0040772467637139 0)
(1.0009699361317 -0.0047400015542913 0)
(1.0012831284406 -0.0053768290294155 0)
(1.0016363661743 -0.0059879576052764 0)
(1.0020285678957 -0.0065745206693106 0)
(1.0024585916817 -0.0071376541922488 0)
(1.0029256026795 -0.0076783633817442 0)
(1.0034283772017 -0.008196443948708 0)
(1.0039662563386 -0.0086924855442392 0)
(1.0045376697637 -0.0091667702081726 0)
(1.005142572919 -0.0096229387632039 0)
(1.00577896687 -0.010063115023029 0)
(1.00644848008 -0.010493762957109 0)
(1.0071477789936 -0.010914197752997 0)
(1.0078816737527 -0.011330484817591 0)
(1.0086424697723 -0.011732601442627 0)
(1.0094415379986 -0.012128650907386 0)
(1.0102600333849 -0.012494576472405 0)
(1.0111250116974 -0.012854400987087 0)
(1.0119912974574 -0.013157301362286 0)
(1.0129240718004 -0.013471249524098 0)
(1.0138174232014 -0.013678843302104 0)
(1.0148289390727 -0.013955922688666 0)
(1.0157127541672 -0.014023666306453 0)
(1.0168465044182 -0.014316967825449 0)
(1.0000009534472 -0.00047540828658187 0)
(1.0000498501926 -0.0014057134935526 0)
(1.000144061919 -0.0023129617146932 0)
(1.000284272358 -0.0031949339953721 0)
(1.0004702671306 -0.0040499530112515 0)
(1.0007011817068 -0.0048768902110892 0)
(1.000975854601 -0.0056748654869905 0)
(1.0012932017068 -0.0064434693319824 0)
(1.0016521516637 -0.0071829765656519 0)
(1.0020519072204 -0.0078947682538409 0)
(1.0024915504117 -0.0085802012065958 0)
(1.0029705774827 -0.0092404690685377 0)
(1.0034879270625 -0.00987522599648 0)
(1.0040433463583 -0.01048514008733 0)
(1.0046352601875 -0.011070440140838 0)
(1.0052642480806 -0.011635626899694 0)
(1.0059279742944 -0.012183152432035 0)
(1.006629273288 -0.012721099513187 0)
(1.0073636700011 -0.013248245333178 0)
(1.0081385030089 -0.013772447438058 0)
(1.0089429042419 -0.014280524570956 0)
(1.0097938253672 -0.014783499845059 0)
(1.0106643691142 -0.01524974325989 0)
(1.0115944838366 -0.015711379292148 0)
(1.0125193725855 -0.016101197789314 0)
(1.0135345833641 -0.016509304481221 0)
(1.0144874167139 -0.016780525790376 0)
(1.0156074211547 -0.017146974959752 0)
(1.016539104774 -0.017240696512753 0)
(1.0178305964483 -0.017633948998175 0)
(1.0000009111858 -0.0005466575762979 0)
(1.0000492301817 -0.0016182187986539 0)
(1.000142647607 -0.0026651324977907 0)
(1.0002820612169 -0.0036848772719686 0)
(1.0004675142678 -0.0046755569545611 0)
(1.0006984477505 -0.0056359102259685 0)
(1.0009740059291 -0.0065649423930066 0)
(1.0012934324945 -0.0074621966940869 0)
(1.0016559490536 -0.0083280022358438 0)
(1.0020611105166 -0.0091639988414046 0)
(1.0025082756958 -0.0099717616475997 0)
(1.0029973525454 -0.010752669608506 0)
(1.0035274852459 -0.011506204405204 0)
(1.0040989319271 -0.01223310149416 0)
(1.0047101323578 -0.01293349764651 0)
(1.0053624458304 -0.013612789242692 0)
(1.0060531628095 -0.014273718181121 0)
(1.006786589897 -0.014926101130003 0)
(1.0075569304245 -0.015568012865837 0)
(1.0083745571345 -0.016209343229966 0)
(1.0092248840348 -0.016833233213707 0)
(1.0101314878976 -0.017454285075469 0)
(1.0110580250427 -0.018032048568407 0)
(1.012059640499 -0.01860838556313 0)
(1.0130485562715 -0.019096850008061 0)
(1.0141559533568 -0.0196135393881 0)
(1.015174474157 -0.019959115431835 0)
(1.0164176398457 -0.020431392747433 0)
(1.0174025371946 -0.020558538328448 0)
(1.0188750968361 -0.021072398777467 0)
(1.0000008538714 -0.00061252866137288 0)
(1.0000479892669 -0.0018154822677055 0)
(1.0001394899424 -0.002993142124234 0)
(1.0002765140392 -0.0041427295341231 0)
(1.0004594044609 -0.0052621656234092 0)
(1.0006879585418 -0.006350087910875 0)
(1.0009616823193 -0.0074054115650618 0)
(1.0012802092212 -0.0084276521792861 0)
(1.0016431110082 -0.0094172066548296 0)
(1.0020503632719 -0.010375988724353 0)
(1.0025016601062 -0.011305794961224 0)
(1.002997404175 -0.012208193513194 0)
(1.0035369985504 -0.013082469216549 0)
(1.0041213142574 -0.013929426390635 0)
(1.0047488373992 -0.014749073634311 0)
(1.0054218484647 -0.015547762612012 0)
(1.0061372458708 -0.016328481874595 0)
(1.0069010473216 -0.01710292847587 0)
(1.007705985217 -0.017868287528089 0)
(1.0085659440335 -0.018636770026043 0)
(1.0094621319132 -0.019387269246042 0)
(1.0104257671515 -0.020138732344585 0)
(1.0114097780184 -0.020840505120432 0)
(1.0124866967781 -0.021545990818191 0)
(1.0135426970961 -0.022146446711128 0)
(1.0147495538564 -0.022788134416398 0)
(1.0158379832687 -0.023220642093514 0)
(1.0172166837531 -0.023817815279119 0)
(1.0182590337644 -0.023987759619264 0)
(1.0199334358792 -0.024645966781888 0)
(1.0000007783354 -0.00067254334368345 0)
(1.0000460184739 -0.0019960846308661 0)
(1.0001342624741 -0.003294639874928 0)
(1.0002669692402 -0.0045652236213686 0)
(1.0004448296861 -0.0058056186987093 0)
(1.0006680452613 -0.0070143992834391 0)
(1.0009365353878 -0.0081904197867408 0)
(1.0012503819082 -0.0093331934077251 0)
(1.0016095637645 -0.01044320323629 0)
(1.0020145387131 -0.011522658778106 0)
(1.0024653952745 -0.01257358881946 0)
(1.0029631000866 -0.013597760990828 0)
(1.0035073794855 -0.014594250706794 0)
(1.0040997936883 -0.015563936072194 0)
(1.0047389495415 -0.016506692096297 0)
(1.005428139775 -0.01742986532584 0)
(1.0061639549148 -0.018336706827383 0)
(1.0069542510162 -0.019240851897087 0)
(1.0077903232161 -0.020138555465909 0)
(1.0086898474982 -0.021044479566832 0)
(1.0096295922817 -0.021932896783396 0)
(1.0106491679342 -0.022827733402275 0)
(1.0116897960548 -0.023666767724892 0)
(1.0128432274719 -0.02451683714842 0)
(1.0139670260269 -0.025243886222133 0)
(1.0152777884771 -0.026028315714935 0)
(1.0164382421843 -0.026562207304615 0)
(1.0179617734721 -0.027305512043577 0)
(1.0190644396268 -0.027529630213869 0)
(1.0209583108464 -0.02835918616248 0)
(1.0000006831607 -0.00072622282710502 0)
(1.0000432347085 -0.0021585899006182 0)
(1.0001267230305 -0.0035672310487833 0)
(1.0002529306776 -0.0049490006479316 0)
(1.0004229410476 -0.0063015899478171 0)
(1.0006374082761 -0.0076235523683327 0)
(1.0008967088911 -0.0089137149429645 0)
(1.0012014234946 -0.010171618540909 0)
(1.0015519877268 -0.011397856124675 0)
(1.0019494017755 -0.012594962370323 0)
(1.0023942016431 -0.013765214010635 0)
(1.0028879850096 -0.014910597730042 0)
(1.0034308633076 -0.016029973271576 0)
(1.0040251582953 -0.017124311621399 0)
(1.0046696865715 -0.018193365588976 0)
(1.0053688055712 -0.019245510456369 0)
(1.0061189502575 -0.020284335226593 0)
(1.0069298017256 -0.021325380752965 0)
(1.0077914878231 -0.022364147592711 0)
(1.0087253641481 -0.023417573922585 0)
(1.009704129594 -0.024455410512689 0)
(1.0107756773582 -0.025506652993839 0)
(1.0118698045159 -0.026496791588558 0)
(1.0130975555494 -0.027507355305105 0)
(1.014288090497 -0.028376844505706 0)
(1.0157025220182 -0.029322279613155 0)
(1.0169368719068 -0.029974403420167 0)
(1.0186070137552 -0.030884724363338 0)
(1.0197752867916 -0.031178638815448 0)
(1.0218992368819 -0.032208031222387 0)
(1.0000005686149 -0.00077313579819303 0)
(1.0000395894467 -0.0023016785473767 0)
(1.0001167224393 -0.0038086867458756 0)
(1.0002340833984 -0.0052909001195387 0)
(1.0003931809483 -0.0067459629212037 0)
(1.0005951662131 -0.0081724503311194 0)
(1.0008409127445 -0.0095691974463308 0)
(1.001131541158 -0.010935804588515 0)
(1.0014679834928 -0.012273001622841 0)
(1.0018518318542 -0.013583680936057 0)
(1.002284114355 -0.014870388651343 0)
(1.0027671192776 -0.016135362207116 0)
(1.0033013953957 -0.01737724880193 0)
(1.0038900869215 -0.018597155517937 0)
(1.0045322995879 -0.01979471929932 0)
(1.0052334901582 -0.020979425007256 0)
(1.0059901304805 -0.02215523830945 0)
(1.0068135954514 -0.023339649673848 0)
(1.007693415197 -0.024527519633359 0)
(1.0086538583461 -0.025737902959606 0)
(1.0096652710307 -0.026936354315973 0)
(1.010781198 -0.028156441393817 0)
(1.0119248582739 -0.029312029463784 0)
(1.0132189151006 -0.030498167649345 0)
(1.0144773628081 -0.031528087687281 0)
(1.0159843759456 -0.032650119756759 0)
(1.0173048266758 -0.033444807897219 0)
(1.0191006381271 -0.034533737545476 0)
(1.0203683169373 -0.03493264161438 0)
(1.0227050220165 -0.036179506279706 0)
(1.0000004353626 -0.0008129371029138 0)
(1.0000350677239 -0.0024242690253889 0)
(1.0001042068525 -0.0040171428019412 0)
(1.0002103007143 -0.0055882292335406 0)
(1.0003553027868 -0.0071351683536155 0)
(1.0005408942891 -0.0086565977809091 0)
(1.0007684790576 -0.010151396218191 0)
(1.0010397484013 -0.01161925623985 0)
(1.0013561598908 -0.0130610730247 0)
(1.0017199309413 -0.014480129893457 0)
(1.0021326157705 -0.015879268328703 0)
(1.0025972333817 -0.017261014129348 0)
(1.0031148151214 -0.01862381921855 0)
(1.0036893793877 -0.019968979864538 0)
(1.004320390255 -0.021296036641719 0)
(1.0050144441891 -0.02261568324118 0)
(1.0057681915798 -0.023932282752805 0)
(1.0065946472028 -0.025265401648775 0)
(1.0074831265741 -0.026609242032876 0)
(1.0084603675317 -0.027985082388577 0)
(1.0094954527504 -0.02935430619672 0)
(1.0106461287528 -0.030754977721328 0)
(1.0118315401385 -0.032089674038297 0)
(1.0131830142028 -0.033466434555873 0)
(1.0145031264461 -0.034673622726581 0)
(1.0160959760068 -0.035990999561964 0)
(1.017497476257 -0.036947782220701 0)
(1.0194162412377 -0.038237315950732 0)
(1.0207796345612 -0.03876378796421 0)
(1.0233325000416 -0.040256065904211 0)
(1.0000002847834 -0.00084539459648175 0)
(1.0000296869454 -0.0025256023611631 0)
(1.0000892146909 -0.0041912471379127 0)
(1.0001816387539 -0.0058389736408837 0)
(1.0003093646961 -0.0074664574886051 0)
(1.0004746227383 -0.0090724365008012 0)
(1.0006793680166 -0.010655867226254 0)
(1.0009258813503 -0.01221656714549 0)
(1.0012161621286 -0.013755624576217 0)
(1.0015530716807 -0.015276746003082 0)
(1.0019387106176 -0.016783095282657 0)
(1.0023768539576 -0.018277526593852 0)
(1.0028690437524 -0.019758324162391 0)
(1.0034202078538 -0.021227034277345 0)
(1.0040302156391 -0.022683141352187 0)
(1.0047068521719 -0.024138653633612 0)
(1.0054470141442 -0.02559836714362 0)
(1.00626540476 -0.02708406690597 0)
(1.007151239327 -0.028589261610136 0)
(1.0081337606328 -0.030137662742205 0)
(1.0091809843638 -0.031686378954137 0)
(1.0103548646819 -0.03327820180468 0)
(1.0115707677637 -0.034804430410266 0)
(1.0129687145733 -0.03638598637514 0)
(1.0143400940856 -0.037786704821151 0)
(1.0160094921264 -0.039317475619142 0)
(1.0174829570236 -0.040456185150846 0)
(1.0195189575023 -0.041968293658977 0)
(1.0209703083403 -0.042645987335281 0)
(1.0237386155191 -0.044409995163714 0)
(1.0000001187308 -0.00087040536988637 0)
(1.0000234949603 -0.0026052934674902 0)
(1.0000718719177 -0.0043302505464062 0)
(1.0001483252079 -0.0060419324374592 0)
(1.0002557096049 -0.0077380853970624 0)
(1.0003968095838 -0.0094175798322369 0)
(1.0005741384224 -0.011079480901254 0)
(1.000790571095 -0.012723760904349 0)
(1.0010486512164 -0.014351728111458 0)
(1.0013518867597 -0.015967542014737 0)
(1.0017029281363 -0.017574715811541 0)
(1.0021063122773 -0.019176473217668 0)
(1.0025641018829 -0.020770967408818 0)
(1.0030821475936 -0.022360061384915 0)
(1.0036607507682 -0.023943237675109 0)
(1.0043089117799 -0.025533921469994 0)
(1.0050238280131 -0.027137398178341 0)
(1.0058219243469 -0.028777794503755 0)
(1.0066923949834 -0.03044795090139 0)
(1.0076670337865 -0.032174158215161 0)
(1.0087128996559 -0.033909309938784 0)
(1.0098962682601 -0.035701015521427 0)
(1.0111288033696 -0.037429540815788 0)
(1.0125595579875 -0.039228529959205 0)
(1.0139685823721 -0.040837703481359 0)
(1.0157018427927 -0.042598893772863 0)
(1.0172349821877 -0.043938669970014 0)
(1.0193771507529 -0.04569640631585 0)
(1.0209100932971 -0.046543923192177 0)
(1.0238687951234 -0.048617469610886 0)
(0.99999993952581 -0.0008880023028876 0)
(1.0000165656279 -0.0026633519176751 0)
(1.0000523810527 -0.0044340457660167 0)
(1.0001107403551 -0.0061967814318002 0)
(1.0001949347369 -0.0079494035009727 0)
(1.0003082954823 -0.0096909398546308 0)
(1.0004538876771 -0.011420590159312 0)
(1.0006351691755 -0.013138506174399 0)
(1.0008552157188 -0.014846240628347 0)
(1.0011181667385 -0.016548431083477 0)
(1.0014272090711 -0.018248965499027 0)
(1.0017876270715 -0.019951476729622 0)
(1.0022019967111 -0.021654028673823 0)
(1.0026770827281 -0.02335887166102 0)
(1.0032136277838 -0.025065547696207 0)
(1.0038218456228 -0.02678899653881 0)
(1.0044992627488 -0.028535056762237 0)
(1.0052640348421 -0.030330312083413 0)
(1.0061053848192 -0.032166996939254 0)
(1.0070576876558 -0.034074105560064 0)
(1.0080871130171 -0.036000477807639 0)
(1.0092643448038 -0.037998553848169 0)
(1.0104974809063 -0.039938002043438 0)
(1.0119445856421 -0.041965019514353 0)
(1.0133752085896 -0.043795356707843 0)
(1.0151550085766 -0.045803385049715 0)
(1.0167342468761 -0.047359275059133 0)
(1.018963275082 -0.049389713330285 0)
(1.0205707687738 -0.050420228222644 0)
(1.0236916425387 -0.052838031805652 0)
(0.99999975141265 -0.00089834940810153 0)
(1.000008994497 -0.0027001893707201 0)
(1.0000310048783 -0.0045031767455541 0)
(1.0000693880665 -0.0063040808616862 0)
(1.0001278474802 -0.0081008750747859 0)
(1.0002102407142 -0.0098927593383847 0)
(1.0003201654927 -0.011679086034022 0)
(1.0004616365036 -0.013460203294847 0)
(1.0006382368095 -0.015237928888788 0)
(1.000854704417 -0.017017395193248 0)
(1.0011147344448 -0.01880288718007 0)
(1.0014243226167 -0.020598480750408 0)
(1.0017865340297 -0.022402195026349 0)
(1.0022090135932 -0.024216739103342 0)
(1.0026929359746 -0.026041779934996 0)
(1.0032496966397 -0.027893863895617 0)
(1.0038771576448 -0.029779451898391 0)
(1.00459517368 -0.031727680115065 0)
(1.0053930246534 -0.033730276200887 0)
(1.0063076433467 -0.035819035013871 0)
(1.0073044243014 -0.037938970681082 0)
(1.008458302543 -0.040147418176079 0)
(1.0096744239185 -0.042303685226072 0)
(1.0111187676248 -0.044567191609313 0)
(1.0125530476008 -0.046628132465482 0)
(1.014358286254 -0.048898073939482 0)
(1.0159668591348 -0.050682794557631 0)
(1.0182611963975 -0.053008400667169 0)
(1.0199277112316 -0.054240974857454 0)
(1.0231856103565 -0.057024815076134 0)
(0.99999955445092 -0.00090173638136103 0)
(1.0000009023559 -0.0027165382699373 0)
(1.000008068591 -0.0045387595672032 0)
(1.000024875092 -0.0063652248844591 0)
(1.0000554191791 -0.008194030565689 0)
(1.0001040525721 -0.010024569213638 0)
(1.0001748744064 -0.011856361494605 0)
(1.0002724155442 -0.013689961416293 0)
(1.0004007291898 -0.015527466072912 0)
(1.000565103288 -0.01737450980184 0)
(1.0007697011317 -0.019235792749309 0)
(1.0010211718104 -0.021115859543684 0)
(1.001323032246 -0.023012730261323 0)
(1.0016837437551 -0.024929639843924 0)
(1.0021048908509 -0.026866444934516 0)
(1.0025989794065 -0.028841381375491 0)
(1.0031642081468 -0.03086159530502 0)
(1.0038220316402 -0.03295886164573 0)
(1.0045618468763 -0.035124492253547 0)
(1.0054229500289 -0.037393234870509 0)
(1.0063702901628 -0.039706378748059 0)
(1.0074824350239 -0.042126601829275 0)
(1.0086628112649 -0.044502456720614 0)
(1.0100833833507 -0.047008259978087 0)
(1.0115012427092 -0.049306364449568 0)
(1.0133088105932 -0.051849602636215 0)
(1.0149256307195 -0.053875277545691 0)
(1.0172618936547 -0.056513071940576 0)
(1.0189664354045 -0.057966803073318 0)
(1.0223307545721 -0.061133981543426 0)
(0.99999935138389 -0.00089855803845428 0)
(0.99999240181939 -0.002713520735091 0)
(0.99998391959999 -0.0045424646654717 0)
(0.99997787821118 -0.0063823271289974 0)
(0.99997873692633 -0.0082313377515821 0)
(0.99999131317271 -0.010089062144601 0)
(1.0000201668249 -0.01195519096633 0)
(1.000070294085 -0.013830487037909 0)
(1.000146170116 -0.015717334884027 0)
(1.0002535684172 -0.017621867957792 0)
(1.0003970704987 -0.019549213102805 0)
(1.0005838995731 -0.021504399301631 0)
(1.0008179803138 -0.023485492810666 0)
(1.0011084967006 -0.02549631223263 0)
(1.0014574159526 -0.02753696779883 0)
(1.0018782419034 -0.02962745247087 0)
(1.0023695050621 -0.031775647564934 0)
(1.0029541008567 -0.034016046583363 0)
(1.003621604188 -0.036339614798672 0)
(1.0044133960305 -0.038784247937178 0)
(1.0052942980753 -0.04128756945261 0)
(1.0063458847647 -0.04391807103814 0)
(1.0074708247678 -0.04651340261527 0)
(1.0088457358204 -0.049263700543468 0)
(1.0102249908389 -0.051803074850164 0)
(1.0120104082637 -0.0546267396473 0)
(1.0136114448118 -0.056903271029482 0)
(1.0159632842756 -0.059866959009306 0)
(1.0176816808271 -0.061557674888224 0)
(1.0211165350389 -0.06511993286535 0)
(0.99999915089762 -0.00088928524856958 0)
(0.99998361780167 -0.0026924618157496 0)
(0.9999588918582 -0.0045164210764526 0)
(0.99992907208135 -0.0063581769842061 0)
(0.99989892432914 -0.0082161030546539 0)
(0.99987368116766 -0.010089942241688 0)
(0.99985832023094 -0.011979551315678 0)
(0.99985824515972 -0.013885891529583 0)
(0.99987830180447 -0.015811635063427 0)
(0.99992467197268 -0.017763399076639 0)
(1.0000022988953 -0.019746742807771 0)
(1.000118878293 -0.021767176805168 0)
(1.0002786938389 -0.023822858822265 0)
(1.0004915303647 -0.025918223149717 0)
(1.0007597091234 -0.028053707348405 0)
(1.0010975823331 -0.030251089883979 0)
(1.0015040006178 -0.03251904772955 0)
(1.0020030922923 -0.034894831943849 0)
(1.0025846480838 -0.037369150307091 0)
(1.0032918316878 -0.039983214825909 0)
(1.0040895516844 -0.042671123588187 0)
(1.0050618968565 -0.045507483254909 0)
(1.0061113319896 -0.048319266872107 0)
(1.007418271798 -0.051312711801665 0)
(1.0087355460324 -0.054094242963148 0)
(1.0104728897101 -0.057201667576513 0)
(1.0120322565221 -0.059735445918043 0)
(1.0143708723888 -0.063035485793774 0)
(1.0160763025758 -0.064975729912746 0)
(1.0195424488445 -0.068938696449909 0)
(0.99999895127192 -0.00087446531885418 0)
(0.99997467879137 -0.0026548938334261 0)
(0.99993334832188 -0.0044630491166317 0)
(0.99987914088057 -0.0062960142282015 0)
(0.99981710074546 -0.0081522811657498 0)
(0.99975281966201 -0.010031748642692 0)
(0.99969163576402 -0.011934435611805 0)
(0.99963928835126 -0.013861483622083 0)
(0.99960094471408 -0.015815850261308 0)
(0.99958310789688 -0.017804604887613 0)
(0.99959103333851 -0.019833756004082 0)
(0.99963276667367 -0.02190926934823 0)
(0.99971291006721 -0.024029465054141 0)
(0.99984169126177 -0.026199367830029 0)
(1.0000217723718 -0.028419851290288 0)
(1.0002681390449 -0.03071440682348 0)
(1.0005799827354 -0.033092619842707 0)
(1.0009823479309 -0.03559441433063 0)
(1.0014653362754 -0.038210430298782 0)
(1.0020734608579 -0.040985220769958 0)
(1.0027719727466 -0.043849711636039 0)
(1.0036469341864 -0.046884655295658 0)
(1.0046010866525 -0.049906979746038 0)
(1.0058178556688 -0.053138815727878 0)
(1.0070494613549 -0.05615999511601 0)
(1.0087120047944 -0.059550482508841 0)
(1.0102022668063 -0.062343949886866 0)
(1.0124967448569 -0.065986155202036 0)
(1.0141601136243 -0.0681857090053 0)
(1.0176175909395 -0.072548472769374 0)
(0.99999875435537 -0.0008546724809658 0)
(0.9999656819588 -0.0026024681133363 0)
(0.99990759243138 -0.0043849914900118 0)
(0.99982870754433 -0.0061993788291568 0)
(0.99973431351507 -0.0080442246693764 0)
(0.99963030234963 -0.0099195574503265 0)
(0.99952232334088 -0.011825547849367 0)
(0.99941636756391 -0.013763482123744 0)
(0.9993178757226 -0.015736589673193 0)
(0.99923355183008 -0.017752318778186 0)
(0.99916892783216 -0.019817151404721 0)
(0.99913223509259 -0.02193744260895 0)
(0.99912841701446 -0.024111814526679 0)
(0.99916792035689 -0.026345785010231 0)
(0.99925384794764 -0.028640878940585 0)
(0.99940143644635 -0.031022059029074 0)
(0.99961042309345 -0.033500084930934 0)
(0.99990612400397 -0.036117182308911 0)
(1.0002793924232 -0.038864398928806 0)
(1.0007751079143 -0.041789197764159 0)
(1.0013596960829 -0.044820238284493 0)
(1.0021198671253 -0.048043704883409 0)
(1.0029599406618 -0.051268041682176 0)
(1.0040647393237 -0.054730039374347 0)
(1.0051876730339 -0.057985246657423 0)
(1.0067489199057 -0.061653894082547 0)
(1.0081424378843 -0.064705412222585 0)
(1.010359501346 -0.068688379744429 0)
(1.0119500472881 -0.071152181726448 0)
(1.015360528256 -0.075906422386498 0)
(0.99999855808051 -0.00083051170151942 0)
(0.99995672248509 -0.0025369089954014 0)
(0.99988191033799 -0.0042849870828058 0)
(0.99977835090965 -0.006071915824768 0)
(0.99965153030674 -0.0078963950480527 0)
(0.99950757405071 -0.0097585682262146 0)
(0.99935240368717 -0.011658757222902 0)
(0.99919218663551 -0.013598360722583 0)
(0.9990326228665 -0.015580869795663 0)
(0.99888046686462 -0.01761400693179 0)
(0.99874150321155 -0.019704743093213 0)
(0.99862388146525 -0.021859680688177 0)
(0.99853299443992 -0.024077912169999 0)
(0.9984791376296 -0.026365212203228 0)
(0.99846620335773 -0.02872410051295 0)
(0.99850897891226 -0.031180533624371 0)
(0.99860843962924 -0.03374703790147 0)
(0.99878880648354 -0.036467330827277 0)
(0.99904313177247 -0.039333982303501 0)
(0.99941414867073 -0.042396038290319 0)
(0.99987236019411 -0.045582022810392 0)
(1.0005008290423 -0.04898110292698 0)
(1.0012105416081 -0.052397004859415 0)
(1.0021812156492 -0.056077227858372 0)
(1.0031752698959 -0.059558452036746 0)
(1.0046082282501 -0.063496860081732 0)
(1.0058822519014 -0.066801561905662 0)
(1.0079869478919 -0.071119386290841 0)
(1.0094836416617 -0.073853478766158 0)
(1.0127936609795 -0.078964136650618 0)
(0.99999835752487 -0.00080267993683877 0)
(0.99994797340553 -0.002460213664653 0)
(0.99985674433901 -0.0041661280682807 0)
(0.99972883963273 -0.0059176249347003 0)
(0.99956988839703 -0.0077135446955135 0)
(0.99938619725195 -0.009554134349313 0)
(0.99918392501499 -0.011439907113876 0)
(0.99896934613326 -0.013372371229146 0)
(0.99874842621568 -0.015355256048982 0)
(0.9985278400719 -0.01739646535077 0)
(0.99831364895367 -0.019503511863529 0)
(0.99811363646991 -0.021683168554273 0)
(0.99793383056752 -0.023935225271555 0)
(0.99778387315854 -0.026265363654569 0)
(0.99766895463363 -0.028677404675137 0)
(0.99760234026375 -0.031197442330934 0)
(0.99758742503035 -0.0338405596543 0)
(0.99764509490773 -0.036650589522337 0)
(0.99777344750196 -0.039623608376129 0)
(0.99800830412345 -0.042807716370239 0)
(0.99833078654657 -0.046135645202499 0)
(0.99881029956046 -0.049693934470056 0)
(0.99937825189322 -0.053290436891833 0)
(1.0001896385217 -0.057172268560776 0)
(1.0010421402157 -0.0608720870482 0)
(1.0023118939836 -0.065067987910843 0)
(1.0034566086012 -0.068622032895398 0)
(1.0054096247547 -0.073281279511428 0)
(1.0068103559492 -0.076271741731684 0)
(1.0099707049765 -0.081774748563056 0)
(0.9999981390081 -0.00077211733700675 0)
(0.99993973646612 -0.0023751662037884 0)
(0.99983282452325 -0.004032672073694 0)
(0.99968130156835 -0.005741981931319 0)
(0.99949090440516 -0.0075021009832869 0)
(0.99926808475096 -0.0093131650033618 0)
(0.9990191839424 -0.011175980558967 0)
(0.99875059623917 -0.013092237432926 0)
(0.99846854666203 -0.015065893277939 0)
(0.99817949892105 -0.017104913649792 0)
(0.99788970194073 -0.01921734188097 0)
(0.99760639671098 -0.021410173005525 0)
(0.99733643581331 -0.023684304481719 0)
(0.9970886425538 -0.026045332142273 0)
(0.99686993177644 -0.028498896631835 0)
(0.99669123055498 -0.031070430656316 0)
(0.99655912096729 -0.033778347986042 0)
(0.99648904937125 -0.036664729580134 0)
(0.99648660209414 -0.039731511307958 0)
(0.99657577238302 -0.043021979968695 0)
(0.99675564386552 -0.046479855607656 0)
(0.99706934028304 -0.050179065825401 0)
(0.9974887077052 -0.053949120233671 0)
(0.99811136719844 -0.058011523541305 0)
(0.9988205390443 -0.061933069836248 0)
(0.99987354349537 -0.066365762780105 0)
(1.0009007451157 -0.070181426377301 0)
(1.0026168471031 -0.07520288857162 0)
(1.0039775493632 -0.078412649496797 0)
(1.0069481933418 -0.084642427427447 0)
(0.99999788001179 -0.00074062823673171 0)
(0.99993178019557 -0.0022872094372642 0)
(0.99981005839778 -0.0038944162354537 0)
(0.99963574362718 -0.0055597783938962 0)
(0.99941495015617 -0.0072823351889601 0)
(0.99915420258833 -0.0090614627642095 0)
(0.99885970675171 -0.010898059849147 0)
(0.99853804192582 -0.012793785559836 0)
(0.998195726624 -0.014752892037626 0)
(0.99783905794854 -0.016783423934983 0)
(0.99747421224114 -0.018893980255521 0)
(0.99710772489145 -0.021091843130293 0)
(0.99674691783781 -0.023379094769138 0)
(0.99639999000748 -0.025761310816777 0)
(0.99607543621288 -0.028246700880956 0)
(0.99578240539184 -0.03086046757275 0)
(0.99553013737092 -0.033626132892758 0)
(0.99532913115357 -0.036583477648151 0)
(0.99519112825531 -0.039743026946823 0)