/*--------------------------------*- C++ -*----------------------------------*\
| =========                 |                                                 |
| \\      /  F ield         | OpenFOAM: The Open Source CFD Toolbox           |
|  \\    /   O peration     | Version:  2112                                  |
|   \\  /    A nd           | Website:  www.openfoam.com                      |
|    \\/     M anipulation  |                                                 |
\*---------------------------------------------------------------------------*/
FoamFile
{
    version     2.0;
    format      ascii;
    arch        "LSB;label=32;scalar=64";
    class       volVectorField;
    location    "16.3";
    object      U;
}
// * * * * * * * * * * * * * * * * * * * * * * * * * * * * * * * * * * * * * //

dimensions      [0 1 -1 0 0 0 0];

internalField   nonuniform List<vector> 
22000
(
(1.00000103113 -2.6403861261117e-05 0)
(1.0000274327188 -7.9321912215026e-05 0)
(1.0000781027348 -0.00013206312649888 0)
(1.0001541789902 -0.00018464589097922 0)
(1.0002560772382 -0.00023696977481221 0)
(1.0003836541753 -0.00028895129004154 0)
(1.0005365481517 -0.0003405657311711 0)
(1.0007144327807 -0.00039182500776148 0)
(1.0009170811145 -0.00044272862870211 0)
(1.0011443405837 -0.00049327945644053 0)
(1.0013960621639 -0.00054345023456435 0)
(1.001672097735 -0.00059324666836554 0)
(1.0019722586167 -0.00064261779283783 0)
(1.0022963705575 -0.00069158724873044 0)
(1.0026441958335 -0.00074004510529727 0)
(1.0030155447824 -0.00078806190975731 0)
(1.0034101079402 -0.00083541207400473 0)
(1.0038276922034 -0.00088230156119318 0)
(1.0042678692245 -0.00092826161891908 0)
(1.0047304753722 -0.00097383744770629 0)
(1.0052148836493 -0.0010180302942236 0)
(1.0057210568333 -0.0010622032608946 0)
(1.0062480403695 -0.0011041507264458 0)
(1.0067961404603 -0.0011471099999882 0)
(1.0073638046436 -0.0011860428680534 0)
(1.0079520776607 -0.0012284515941967 0)
(1.0085582173726 -0.0012627293615186 0)
(1.0091847570717 -0.0013062107303626 0)
(1.0098266116489 -0.0013322194075125 0)
(1.0104893674639 -0.0013807957606577 0)
(1.0000004586376 -7.7499833509169e-05 0)
(1.0000266031683 -0.00023303419097673 0)
(1.000077088466 -0.00038822850408786 0)
(1.0001530093161 -0.00054308228712572 0)
(1.0002548450601 -0.00069725214428552 0)
(1.0003825296825 -0.0008504716323957 0)
(1.0005357481439 -0.001002667173535 0)
(1.0007142027287 -0.001153877532707 0)
(1.0009176750175 -0.0013041038980981 0)
(1.0011460358959 -0.0014533563729851 0)
(1.0013991428719 -0.0016015585261221 0)
(1.0016768923864 -0.0017487300458093 0)
(1.0019790960303 -0.001894724974568 0)
(1.0023056532669 -0.0020396110247351 0)
(1.0026562937932 -0.002183067520722 0)
(1.0030309531151 -0.0023252948159854 0)
(1.0034292128185 -0.0024656383685779 0)
(1.0038511183936 -0.0026046884683436 0)
(1.0042959674115 -0.0027410913108185 0)
(1.0047640829053 -0.0028764102359652 0)
(1.0052542025679 -0.0030077719314698 0)
(1.0057673127176 -0.0031390816711966 0)
(1.006301036092 -0.0032640188956239 0)
(1.0068578626548 -0.0033918376078139 0)
(1.0074331149334 -0.003508147757927 0)
(1.0080325269302 -0.0036343276486112 0)
(1.0086465799054 -0.003737340338415 0)
(1.009287911901 -0.0038664187384942 0)
(1.0099368928943 -0.00394592553663 0)
(1.0106209972151 -0.004089177687611 0)
(1.000000475342 -0.00012589235415341 0)
(1.0000271786203 -0.00037880152010155 0)
(1.0000786575088 -0.00063137698424298 0)
(1.0001559229604 -0.0008835887302897 0)
(1.0002594081571 -0.0011348213393643 0)
(1.0003890552973 -0.0013846143360362 0)
(1.000544578021 -0.0016328514124995 0)
(1.0007257227042 -0.0018796094709365 0)
(1.0009322970069 -0.0021249019874536 0)
(1.0011642186511 -0.0023687613870544 0)
(1.001421363216 -0.0026110780474567 0)
(1.0017037019256 -0.0028519044809887 0)
(1.0020110537252 -0.0030910084588912 0)
(1.0023434394295 -0.0033285133747198 0)
(1.0027005460531 -0.0035638844989812 0)
(1.0030825133021 -0.0037974682487014 0)
(1.0034887588793 -0.0040281718360403 0)
(1.0039197164244 -0.0042570066938751 0)
(1.0043742519364 -0.0044817073945896 0)
(1.0048534861628 -0.0047049273422146 0)
(1.005355125488 -0.0049218379690034 0)
(1.0058818561417 -0.0051390271231323 0)
(1.0064289253427 -0.0053458504509162 0)
(1.0070025153441 -0.0055578819904936 0)
(1.0075925856948 -0.0057508972626777 0)
(1.0082129831621 -0.0059608510484829 0)
(1.0088422270081 -0.0061321953184685 0)
(1.0095109267931 -0.0063476789459758 0)
(1.0101729942818 -0.006480262741395 0)
(1.0108961410355 -0.0067202256693213 0)
(1.0000004767996 -0.00017232333069862 0)
(1.0000276450913 -0.00051868084569283 0)
(1.0000800286877 -0.00086469160667246 0)
(1.0001586466105 -0.0012103554336071 0)
(1.0002639230274 -0.0015548041367255 0)
(1.0003958029139 -0.0018974000693426 0)
(1.0005540131467 -0.0022380063336553 0)
(1.0007383438719 -0.0025767612851972 0)
(1.0009486338287 -0.0029137121596542 0)
(1.0011848678976 -0.0032489433242563 0)
(1.0014469499891 -0.0035823407809746 0)
(1.0017349590511 -0.003914023524514 0)
(1.0020487266974 -0.0042436873434516 0)
(1.0023884470512 -0.0045715334627915 0)
(1.0027537506442 -0.0048968059495599 0)
(1.0031450685641 -0.0052200278317582 0)
(1.0035615935931 -0.0055396464168917 0)
(1.0040043105918 -0.0058571603925326 0)
(1.004471486515 -0.0061693361685447 0)
(1.0049653697032 -0.0064800474036392 0)
(1.0054822277805 -0.006782353979189 0)
(1.0060271412425 -0.007085780122329 0)
(1.0065920361128 -0.0073749701860124 0)
(1.0071882812193 -0.0076723591198713 0)
(1.0077983342338 -0.0079430178131427 0)
(1.008447420311 -0.0082387028648299 0)
(1.0090973405156 -0.0084794545158327 0)
(1.0098038844256 -0.0087843083870745 0)
(1.0104840319723 -0.0089706346740591 0)
(1.0112617789337 -0.0093118517248967 0)
(1.0000004750018 -0.00021678971496704 0)
(1.0000280454296 -0.00065275729498403 0)
(1.0000812254552 -0.0010883919778289 0)
(1.0001610600621 -0.0015237533949376 0)
(1.0002679814907 -0.001957726240758 0)
(1.0004019479961 -0.0023895173193936 0)
(1.0005627032783 -0.0028190035868431 0)
(1.0007500903246 -0.0032464190223468 0)
(1.0009639867072 -0.0036718731108035 0)
(1.0012044650126 -0.0040955395428505 0)
(1.0014714696895 -0.0045173363457003 0)
(1.0017652218912 -0.0049374926190647 0)
(1.0020855757692 -0.0053556513071906 0)
(1.0024329518484 -0.0057721210597375 0)
(1.002806917419 -0.0061859157963256 0)
(1.0032082805328 -0.0065977749934183 0)
(1.0036359604446 -0.0070056570775038 0)
(1.004091648094 -0.0074116331609134 0)
(1.004572868507 -0.0078114255537594 0)
(1.005083302576 -0.0082102966540025 0)
(1.0056174238362 -0.0085989891679061 0)
(1.0061833370756 -0.0089902968625032 0)
(1.0067688167107 -0.0093636494104228 0)
(1.0073917563978 -0.0097490555553412 0)
(1.0080252331444 -0.01009975189357 0)
(1.0087087425476 -0.010484904787521 0)
(1.009383189007 -0.010797676116931 0)
(1.0101358616456 -0.011197011262685 0)
(1.0108376128872 -0.011439275985544 0)
(1.0116826967446 -0.011889076154681 0)
(1.0000004686983 -0.00025920027132603 0)
(1.0000283092652 -0.0007807843370988 0)
(1.0000820367698 -0.0013021069411043 0)
(1.0001627233234 -0.0018233216802174 0)
(1.0002708141344 -0.0023430632779316 0)
(1.0004062892811 -0.0028604001238109 0)
(1.0005689178389 -0.0033752593537317 0)
(1.0007586098629 -0.0038880092627856 0)
(1.0009752932246 -0.004398854454207 0)
(1.0012191499293 -0.0049081010755936 0)
(1.0014901792576 -0.0054157412669237 0)
(1.0017887792455 -0.0059221649902305 0)
(1.0021148402099 -0.0064269853517135 0)
(1.002469061296 -0.0069306537789255 0)
(1.0028509467227 -0.0074319454454015 0)
(1.0032617629612 -0.0079318637457923 0)
(1.0037001209347 -0.0084278471862318 0)
(1.0041685604327 -0.0089226386879752 0)
(1.0046637504586 -0.0094108322685078 0)
(1.0051910778078 -0.009899273095612 0)
(1.0057429281765 -0.010376155639181 0)
(1.0063309819414 -0.010857923873112 0)
(1.0069381659561 -0.011318225351707 0)
(1.007590048919 -0.011795452233499 0)
(1.0082487449521 -0.01222973362618 0)
(1.0089704738995 -0.012709462152733 0)
(1.0096717341996 -0.013098143830902 0)
(1.0104766331695 -0.013598707302253 0)
(1.0112022248264 -0.013900423422109 0)
(1.0121247408671 -0.014468091556339 0)
(1.0000004560576 -0.00029938240560472 0)
(1.0000283433927 -0.00090225494373408 0)
(1.0000821916422 -0.0015050042952109 0)
(1.0001631037628 -0.0021079172664525 0)
(1.0002715439887 -0.0027093742102151 0)
(1.000407522495 -0.0033083219265658 0)
(1.0005708418756 -0.0039047764790808 0)
(1.000761492681 -0.0044992828234645 0)
(1.000979464469 -0.0050921774779436 0)
(1.0012250693178 -0.0056839474101985 0)
(1.0014983765451 -0.0062747066893414 0)
(1.0017999945707 -0.0068650635122931 0)
(1.0021298666757 -0.0074546292150192 0)
(1.002489020578 -0.0080440391200531 0)
(1.0028769047354 -0.0086318245363933 0)
(1.0032953195 -0.0092193068966892 0)
(1.0037425477846 -0.0098033769087304 0)
(1.0042221054682 -0.010387558296836 0)
(1.0047297237722 -0.010965234268073 0)
(1.0052727303535 -0.011545040097619 0)
(1.0058411992202 -0.012112387069654 0)
(1.0064508462221 -0.01268776816718 0)
(1.0070792078921 -0.013238465552912 0)
(1.0077604641851 -0.013812091934516 0)
(1.0084445263799 -0.014334359520201 0)
(1.0092063020814 -0.014914751519088 0)
(1.0099351383208 -0.01538427154129 0)
(1.0107961689717 -0.015993989820307 0)
(1.0115466888405 -0.016359870739088 0)
(1.0125541221783 -0.017056056738407 0)
(1.0000004356085 -0.00033709713210639 0)
(1.0000280652655 -0.0010164569463009 0)
(1.0000814475768 -0.0016958984902158 0)
(1.0001617205587 -0.0023758824090938 0)
(1.0002693731962 -0.0030545314193305 0)
(1.0004044527239 -0.0037306903522635 0)
(1.0005668035173 -0.0044045069689296 0)
(1.0007565099781 -0.0050767495046013 0)
(1.0009736350044 -0.0057479275509105 0)
(1.0012186397168 -0.0064187619571281 0)
(1.0014916787875 -0.0070895416144423 0)
(1.0017936015759 -0.007761155362265 0)
(1.0021244231114 -0.0084332458547824 0)
(1.0024855450958 -0.0091066778971962 0)
(1.0028763743613 -0.0097797392492861 0)
(1.0032993120595 -0.010454128235879 0)
(1.0037523097659 -0.011126167512491 0)
(1.0042399671484 -0.011800275141148 0)
(1.0047570319425 -0.012468551933306 0)
(1.0053129619535 -0.013141631622122 0)
(1.0058953750121 -0.013801923921657 0)
(1.0065243760695 -0.014474359718755 0)
(1.0071717435126 -0.015119302365937 0)
(1.0078809622736 -0.01579438635697 0)
(1.0085888847483 -0.016409663046474 0)
(1.0093905202291 -0.017097475130424 0)
(1.0101461684171 -0.017653633174898 0)
(1.0110649623372 -0.018381272087975 0)
(1.0118403529149 -0.018817211333962 0)
(1.0129374233401 -0.019653516889706 0)
(1.0000004062394 -0.00037206301589108 0)
(1.0000274049514 -0.0011225452092857 0)
(1.0000796064186 -0.0018733787725839 0)
(1.0001581796625 -0.0026252390496934 0)
(1.0002636397059 -0.0033759888583895 0)
(1.0003960763918 -0.0041243926023897 0)
(1.0005553831828 -0.0048707748228117 0)
(1.0007417497113 -0.0056161758756387 0)
(1.000955323548 -0.0063613224614003 0)
(1.0011967325271 -0.0071072257019127 0)
(1.0014662327796 -0.0078544069489712 0)
(1.0017649415287 -0.0086041019914484 0)
(1.0020929658226 -0.0093560232146487 0)
(1.0024521199336 -0.010111313517861 0)
(1.0028417892241 -0.010868024745217 0)
(1.0032650305379 -0.011628293117093 0)
(1.0037194777756 -0.012387865163324 0)
(1.0042108977585 -0.013152165488066 0)
(1.0047330486771 -0.013911962022294 0)
(1.0052976536742 -0.014680082820765 0)
(1.0058898178063 -0.015435756945684 0)
(1.0065342674023 -0.016208701683528 0)
(1.0071968480918 -0.016951888817905 0)
(1.0079307700383 -0.017733670933676 0)
(1.0086593965668 -0.018447371591798 0)
(1.0094986422421 -0.019249710196415 0)
(1.0102787932095 -0.019899012345241 0)
(1.0112546049926 -0.02075381410578 0)
(1.0120536347341 -0.021266853138823 0)
(1.0132421306815 -0.022255352031328 0)
(1.000000367077 -0.00040398335672488 0)
(1.0000263078119 -0.0012196232006545 0)
(1.0000765082871 -0.0020359466182715 0)
(1.0001521596468 -0.0028538839178593 0)
(1.0002538015456 -0.003671036194571 0)
(1.0003815702968 -0.0044861093544066 0)
(1.0005354154434 -0.0052996499919477 0)
(1.0007156413204 -0.0061130192294757 0)
(1.0009224891704 -0.0069272057412456 0)
(1.0011567658234 -0.0077435681368222 0)
(1.0014188431191 -0.0085629208196063 0)
(1.0017101282363 -0.0093869148662536 0)
(1.0020308419314 -0.010215376834861 0)
(1.0023832410573 -0.011049778236736 0)
(1.0027667151271 -0.011887952200397 0)
(1.0031850160347 -0.012732533333679 0)
(1.0036354902924 -0.01357870076463 0)
(1.0041251255618 -0.01443299013451 0)
(1.0046467260322 -0.015284817465168 0)
(1.0052143533354 -0.016149374397903 0)
(1.0058106378274 -0.017002592888071 0)
(1.0064650233638 -0.017879253268464 0)
(1.0071374577422 -0.018724595134115 0)
(1.0078909978003 -0.019618210032435 0)
(1.0086355436857 -0.020435915877436 0)
(1.0095080625114 -0.021359916045719 0)
(1.0103088537723 -0.022109400067276 0)
(1.0113384836707 -0.023100705296027 0)
(1.0121587148151 -0.023698973957509 0)
(1.0134373629866 -0.024851710274308 0)
(1.0000003179566 -0.00043257581197893 0)
(1.0000247337595 -0.001306834051763 0)
(1.0000720355753 -0.002182165686188 0)
(1.0001434241301 -0.0030597940831219 0)
(1.0002394595763 -0.0039370569291605 0)
(1.0003603268339 -0.0048126229958763 0)
(1.0005060368815 -0.0056873049957518 0)
(1.0006770149265 -0.0065628319080255 0)
(1.0008736024991 -0.0074404991320165 0)
(1.0010967927193 -0.0083220689887275 0)
(1.0013470840768 -0.0092087106405581 0)
(1.0016261866797 -0.010102557823132 0)
(1.0019344557844 -0.011003600631279 0)
(1.0022746108271 -0.011913689744005 0)
(1.002646076148 -0.012830468544697 0)
(1.0030533198724 -0.013757127135848 0)
(1.0034934475709 -0.014688307170552 0)
(1.0039746871425 -0.015631745326337 0)
(1.0044889662217 -0.016575528029408 0)
(1.0050526890236 -0.017537338543178 0)
(1.0056461470025 -0.018489780705275 0)
(1.006303451924 -0.019472871106613 0)
(1.006978905674 -0.020423959458544 0)
(1.007745217349 -0.021434151774176 0)
(1.0084993252552 -0.022361381782924 0)
(1.0093987123261 -0.023413879466299 0)
(1.0102147406407 -0.024270924338317 0)
(1.0112925024574 -0.0254077802217 0)
(1.0121302577346 -0.02610040860015 0)
(1.0134946402154 -0.027428883936264 0)
(1.0000002585816 -0.00045759464450441 0)
(1.0000226602596 -0.0013834269886435 0)
(1.0000661204237 -0.0023107729452164 0)
(1.0001318341866 -0.0032411829178545 0)
(1.0002203765596 -0.0041717295248869 0)
(1.0003319805661 -0.0051010643785143 0)
(1.0004667216649 -0.0060303076512148 0)
(1.0006251479509 -0.0069615997588663 0)
(1.0008077044599 -0.0078965858705075 0)
(1.0010155717642 -0.0088374854382175 0)
(1.001249382714 -0.0097858841833315 0)
(1.0015111545012 -0.01074446266762 0)
(1.0018013942968 -0.011713427835677 0)
(1.0021232894189 -0.012695056913685 0)
(1.0024763331676 -0.013686844999752 0)
(1.002865711259 -0.014692588318816 0)
(1.0032883498772 -0.015706446132529 0)
(1.0037536992504 -0.016737424892745 0)
(1.0042529283855 -0.017772354125429 0)
(1.0048047147429 -0.018831481107791 0)
(1.0053872433621 -0.019884157185577 0)
(1.0060390926714 -0.020975674651522 0)
(1.0067093881908 -0.022035566311597 0)
(1.007479976579 -0.023166416907884 0)
(1.0082358075418 -0.024208400451663 0)
(1.0091536597434 -0.025395606381714 0)
(1.0099780208896 -0.026367728785683 0)
(1.0110957662604 -0.027658493453144 0)
(1.011946097755 -0.028455492277099 0)
(1.0133886394205 -0.029970151132629 0)
(1.0000001895578 -0.00047884720876481 0)
(1.0000200822247 -0.0014488078357006 0)
(1.0000587461366 -0.0024207633692158 0)
(1.0001173527814 -0.0033966200310568 0)
(1.0001964838665 -0.0043731833909193 0)
(1.000296417858 -0.0053491054003458 0)
(1.00041729521 -0.00632585089766 0)
(1.0005597841108 -0.007306009919098 0)
(1.0007244323227 -0.0082916172516506 0)
(1.0009126020524 -0.0092853979352706 0)
(1.0011250638437 -0.01028941441035 0)
(1.001364136047 -0.011306952966452 0)
(1.0016304920772 -0.012338494293593 0)
(1.0019277774618 -0.013386783857581 0)
(1.0022555881463 -0.014449222394577 0)
(1.0026198056786 -0.0155302518933 0)
(1.0030172517901 -0.016623632447579 0)
(1.0034585424751 -0.017739681354494 0)
(1.0039342433674 -0.018864101945802 0)
(1.004465161103 -0.020019709099338 0)
(1.0050276976319 -0.021172802275694 0)
(1.0056645467558 -0.022373827790141 0)
(1.0063203330487 -0.023544846999428 0)
(1.0070852143283 -0.024799518031563 0)
(1.0078335764024 -0.025960974114165 0)
(1.0087596176857 -0.027288159732097 0)
(1.0095839730149 -0.028382801362124 0)
(1.0107311805055 -0.029834756345454 0)
(1.0115878479877 -0.030746865461648 0)
(1.0130978836327 -0.03245659294633 0)
(1.0000001112762 -0.00049620537538548 0)
(1.0000170125807 -0.0015025738402992 0)
(1.0000499467616 -0.0025114491013664 0)
(1.0001000417665 -0.003525115353695 0)
(1.0001678770411 -0.0045401085173667 0)
(1.0002537710103 -0.0055550951520287 0)
(1.0003579268838 -0.0065719165003093 0)
(1.0004811251303 -0.0075936434525175 0)
(1.0006240110773 -0.0086227357203419 0)
(1.0007881153537 -0.0096624654308803 0)
(1.0009743445312 -0.010715428590603 0)
(1.0011853015942 -0.011785568409413 0)
(1.0014218359172 -0.012873698413431 0)
(1.0016880261552 -0.013983066509569 0)
(1.001983604108 -0.015111045628584 0)
(1.0023151005985 -0.016262748358855 0)
(1.0026793161128 -0.017431647638818 0)
(1.0030879372153 -0.018629378815868 0)
(1.0035311135929 -0.019840713304475 0)
(1.0040315648303 -0.021090957480584 0)
(1.0045643136671 -0.022343698524799 0)
(1.0051756752549 -0.023654231456227 0)
(1.005806634472 -0.02493779729149 0)
(1.006554544933 -0.026318305020881 0)
(1.0072850579719 -0.027603233694129 0)
(1.0082073200309 -0.029074438217815 0)
(1.0090219964749 -0.030298747024271 0)
(1.0101859288179 -0.031917729377013 0)
(1.0110413929717 -0.032956234824032 0)
(1.012605323391 -0.034867882987959 0)
(1.0000000250052 -0.00050961176188548 0)
(1.0000134795291 -0.0015445332782237 0)
(1.0000398017968 -0.0025824925918248 0)
(1.000080054561 -0.0036261671527164 0)
(1.0001348035167 -0.0046718193226005 0)
(1.0002043998749 -0.0057181405853849 0)
(1.000289104734 -0.0067673737087311 0)
(1.0003897981417 -0.0078230936865948 0)
(1.0005072134586 -0.0088882147208908 0)
(1.0006430291694 -0.0099665888837576 0)
(1.0007982809545 -0.011061397816875 0)
(1.0009758291777 -0.012177282847681 0)
(1.0011767034355 -0.013315450373621 0)
(1.0014053749921 -0.014479675168819 0)
(1.0016617419483 -0.015667380663071 0)
(1.0019529150661 -0.016884357782739 0)
(1.0022757616349 -0.018123932898805 0)
(1.0026429043699 -0.019399026830214 0)
(1.003044289093 -0.020693738963174 0)
(1.0035042657137 -0.022035703519615 0)
(1.0039969477725 -0.023386282253707 0)
(1.0045716503411 -0.02480511470333 0)
(1.0051667349044 -0.026201600021083 0)
(1.0058853819804 -0.027708625155619 0)
(1.0065866802561 -0.029120118861526 0)
(1.0074917396269 -0.030737889682781 0)
(1.0082858613331 -0.032098499926845 0)
(1.0094517890805 -0.033888564842057 0)
(1.0102972270536 -0.035065085745103 0)
(1.0118987563141 -0.037183043427987 0)
(0.99999993173044 -0.00051908106368063 0)
(1.0000095258369 -0.0015747111740403 0)
(1.0000284308211 -0.0026339165808801 0)
(1.0000576226454 -0.0036997761652182 0)
(1.0000976417277 -0.0047682745390115 0)
(1.0001488623144 -0.0058381342877179 0)
(1.0002115954821 -0.0069120167191929 0)
(1.0002868039857 -0.0079940153279496 0)
(1.0003752953677 -0.0090875213792021 0)
(1.0004788688829 -0.010196990302394 0)
(1.0005986770688 -0.011326235000843 0)
(1.0007378001249 -0.01248062445802 0)
(1.0008974460927 -0.013661817160119 0)
(1.0010824236179 -0.014874127563416 0)
(1.0012928233123 -0.016115117859203 0)
(1.0015362451522 -0.017391246343015 0)
(1.0018097129562 -0.018695860001794 0)
(1.0021266166229 -0.020043090903856 0)
(1.0024769242896 -0.021416688984359 0)
(1.0028862743348 -0.022846360824225 0)
(1.0033283898247 -0.024291877070162 0)
(1.0038548568358 -0.025816513651521 0)
(1.0044025486373 -0.027325139749646 0)
(1.0050788978514 -0.028957884478167 0)
(1.0057388643242 -0.030497967783018 0)
(1.0066121302321 -0.03226314920357 0)
(1.0073737907971 -0.033765968643122 0)
(1.0085252777677 -0.035729096696716 0)
(1.0093506249372 -0.037055339519774 0)
(1.0109710689813 -0.039381156423776 0)
(0.99999983321935 -0.00052469741004689 0)
(1.0000052046663 -0.0015933403906221 0)
(1.0000159835345 -0.002666093942152 0)
(1.0000330409443 -0.0037464329102497 0)
(1.0000568753789 -0.0048300614339455 0)
(1.0000878751426 -0.0059157349267241 0)
(1.0001263915611 -0.007006543119063 0)
(1.0001734486692 -0.0081071035119424 0)
(1.0002299100801 -0.0092212990744109 0)
(1.0002976632929 -0.01035420194382 0)
(1.0003779605937 -0.011510294000568 0)
(1.0004740559275 -0.01269568971196 0)
(1.0005873272474 -0.013912555472713 0)
(1.0007228520874 -0.015165746149675 0)
(1.0008809334206 -0.01645305661618 0)
(1.0010695514237 -0.017781583304347 0)
(1.0012859731931 -0.019144880950235 0)
(1.0015441588239 -0.020558180928236 0)
(1.0018343308462 -0.022005258765559 0)
(1.0021830249789 -0.02351755267257 0)
(1.0025641196241 -0.025054008086378 0)
(1.0030306590558 -0.02668063677163 0)
(1.0035192401426 -0.028299404235635 0)
(1.0041398204619 -0.030055502728873 0)
(1.0047458445042 -0.031725001076083 0)
(1.0055718874398 -0.033636586474794 0)
(1.006288363457 -0.035286604074569 0)
(1.0074076168302 -0.037422482182668 0)
(1.0082016541257 -0.03890996600017 0)
(1.0098203023575 -0.041442047624361 0)
(0.99999972985125 -0.00052660963080817 0)
(1.0000005791654 -0.0016008375482577 0)
(1.0000026483697 -0.0026796924185865 0)
(1.0000066603559 -0.0037670545337361 0)
(1.0000130734066 -0.004858328985874 0)
(1.000022278989 -0.0059523005873624 0)
(1.0000346569549 -0.0070524881106643 0)
(1.0000512685723 -0.0081640288699532 0)
(1.0000730118149 -0.00929130388081 0)
(1.0001018249067 -0.010440004780493 0)
(1.0001390374856 -0.011615310542268 0)
(1.0001880248744 -0.012824088252582 0)
(1.0002503200497 -0.014069062339768 0)
(1.0003311919102 -0.01535562035463 0)
(1.0004311666506 -0.016681882461081 0)
(1.0005584821245 -0.018055541720521 0)
(1.0007107257392 -0.019470553308617 0)
(1.0009022116024 -0.020943112380666 0)
(1.0011236423517 -0.022457421468194 0)
(1.0014020287976 -0.024046254611846 0)
(1.0017119538612 -0.025668582851304 0)
(1.0021070497876 -0.027392111183647 0)
(1.0025248798981 -0.029117766839734 0)
(1.0030760996274 -0.030993264479595 0)
(1.003615341559 -0.032791689342837 0)
(1.0043782299914 -0.034846741860485 0)
(1.0050362255571 -0.036647851045003 0)
(1.0061044997583 -0.038953764610391 0)
(1.0068550182498 -0.04061355967173 0)
(1.008449562959 -0.043346975028971 0)
(0.99999962524384 -0.00052501586174678 0)
(0.99999571143388 -0.0015978009428281 0)
(0.99998858999819 -0.0026757076103828 0)
(0.9999788330432 -0.0037629915185239 0)
(0.9999668328248 -0.0048547633835488 0)
(0.99995297277333 -0.0059498305945027 0)
(0.99993764936494 -0.0070521370154946 0)
(0.99992193620244 -0.0081673278013145 0)
(0.99990674279089 -0.0093002800092123 0)
(0.99989401759623 -0.010457296271785 0)
(0.99988513915026 -0.011644268544364 0)
(0.99988354605292 -0.012868812606163 0)
(0.9998909029458 -0.014134250298035 0)
(0.99991258969351 -0.015446490226707 0)
(0.99994935506746 -0.016804058973472 0)
(1.0000095691355 -0.018215206281775 0)
(1.0000911957562 -0.01967445982225 0)
(1.0002086846825 -0.021198853447242 0)
(1.0003534151903 -0.022773387550417 0)
(1.0005524513441 -0.024431799212192 0)
(1.0007815948561 -0.026133908279979 0)
(1.0010941921253 -0.027948082281285 0)
(1.0014299816412 -0.029776103297589 0)
(1.0018984607324 -0.031765561559408 0)
(1.0023581345047 -0.033690990021536 0)
(1.0030417649249 -0.035884671724642 0)
(1.0036276375147 -0.037839427052628 0)
(1.0046256127455 -0.040310254059987 0)
(1.0053196632434 -0.042152783495181 0)
(1.0068667463237 -0.045079242098152 0)
(0.99999951952633 -0.00052016150357845 0)
(0.99999067178633 -0.001584938732291 0)
(0.99997401709181 -0.0026553040081414 0)
(0.99994994865513 -0.0037358727763711 0)
(0.9999187894478 -0.0048214461879235 0)
(0.99988090238146 -0.0059108390414031 0)
(0.99983668662356 -0.0070084081791388 0)
(0.99978720183941 -0.0081202862395565 0)
(0.99973334670688 -0.009251838588028 0)
(0.99967703870863 -0.010409959986259 0)
(0.99961967382834 -0.011601261530819 0)
(0.99956469169565 -0.012834093367606 0)
(0.99951385572502 -0.014112402729881 0)
(0.99947257580752 -0.015442604653789 0)
(0.99944180665138 -0.016823693409945 0)
(0.99942993504678 -0.018264451240124 0)
(0.99943532149591 -0.019760099079964 0)
(0.99947235991179 -0.021328442345544 0)
(0.99953322897477 -0.022955525726673 0)
(0.99964468718345 -0.024675839789361 0)
(0.9997841433152 -0.026450617477153 0)
(1.0000039056212 -0.028348224592096 0)
(1.0002469192052 -0.030272715403201 0)
(1.0006198399584 -0.032369533685532 0)
(1.0009875027441 -0.034418369120364 0)
(1.0015760111562 -0.036744336163323 0)
(1.0020760107318 -0.0388534031605 0)
(1.0029840193764 -0.041481768972109 0)
(1.0036081012944 -0.043516285847315 0)
(1.0050839429776 -0.046624247626351 0)
(0.9999994138465 -0.00051231485980171 0)
(0.99998551079901 -0.0015630493481698 0)
(0.99995908784322 -0.0026198139458583 0)
(0.99992034514006 -0.0036875600196467 0)
(0.9998695308375 -0.004760767949141 0)
(0.99980697093764 -0.0058382363321353 0)
(0.99973305151275 -0.0069247143207008 0)
(0.99964878867994 -0.0080267896505924 0)
(0.99955505306996 -0.0091503057872518 0)
(0.99945368597127 -0.010302719289464 0)
(0.99934607119 -0.011491361879465 0)
(0.99923557761467 -0.01272528390987 0)
(0.99912403805593 -0.014009082400804 0)
(0.99901680383268 -0.015349647541031 0)
(0.99891501531959 -0.016746495714575 0)
(0.99882696169828 -0.018208919945949 0)
(0.99875139480895 -0.019732910271956 0)
(0.99870249762908 -0.021337047519502 0)
(0.99867327333074 -0.023008482099029 0)
(0.99868993589359 -0.02478253750569 0)
(0.99873163625539 -0.026621867243914 0)
(0.99884920315905 -0.028595046353243 0)
(0.99898932072855 -0.030608429336486 0)
(0.99925476887723 -0.032805437137264 0)
(0.99951841780775 -0.034971628233453 0)
(0.99999682087579 -0.037423340099544 0)
(1.0003974911056 -0.039683989740838 0)
(1.0011959283245 -0.042461677762169 0)
(1.0017360198232 -0.044693396506275 0)
(1.0031164996034 -0.04796822947727 0)
(0.999999305418 -0.00050176771116996 0)
(0.9999802739499 -0.0015329813762345 0)
(0.99994394113814 -0.0025706198866855 0)
(0.99989031154255 -0.0036199602151661 0)
(0.99981956695878 -0.0046751748008464 0)
(0.99973198157631 -0.0057350261387895 0)
(0.99962791308078 -0.0068046236479646 0)
(0.99950829259137 -0.0078909514721319 0)
(0.99937394861751 -0.0090003115027292 0)
(0.99922659233086 -0.010140683465356 0)
(0.99906758751817 -0.011320141888049 0)
(0.9989001357931 -0.012548378806501 0)
(0.99872614068613 -0.013830678587285 0)
(0.99855075489321 -0.015174314598657 0)
(0.99837534178333 -0.016579415427787 0)
(0.9982078953743 -0.018055677336612 0)
(0.99804764532181 -0.019599990355554 0)
(0.99790830352141 -0.021231638528931 0)
(0.99778381851273 -0.022938931554022 0)
(0.99769955311281 -0.024758223126029 0)
(0.99763648433582 -0.02665314370902 0)
(0.99764369272045 -0.028693642603108 0)
(0.99767156503585 -0.030786372333858 0)
(0.99781887891864 -0.033076533110377 0)
(0.997966720092 -0.035349940639586 0)
(0.99832164312752 -0.037923168365871 0)
(0.99861008891714 -0.040325474918073 0)
(0.99928138530275 -0.043250016575098 0)
(0.99972414558284 -0.04567138411234 0)
(1.0009828222867 -0.049098917998645 0)
(0.99999919085459 -0.0004888824584354 0)
(0.99997506320933 -0.0014957758835966 0)
(0.9999288163949 -0.0025093117043267 0)
(0.99986023477569 -0.0035351187806077 0)
(0.99976945475609 -0.0045671341162538 0)
(0.99965671736863 -0.0056040948954816 0)
(0.99952236607963 -0.006651452467216 0)
(0.99936720162138 -0.0077165039111589 0)
(0.99919197601448 -0.0088059658138327 0)
(0.99899817452232 -0.0099282698660042 0)
(0.99878715923065 -0.011092262899202 0)
(0.99856185827292 -0.012308217834241 0)
(0.99832432935255 -0.013582212170514 0)
(0.99807929445607 -0.014921756368529 0)
(0.9978285267928 -0.016327786522677 0)
(0.99757929669351 -0.017810091414159 0)
(0.99733173227027 -0.019366830240643 0)
(0.99709830972122 -0.021017482277524 0)
(0.99687472742997 -0.022752097215212 0)
(0.996684250174 -0.024607520536529 0)
(0.99651099855423 -0.026548741849549 0)
(0.99640055691584 -0.028647564532403 0)
(0.99630860578401 -0.030808972901354 0)
(0.99632812602312 -0.033185507473441 0)
(0.99634944036874 -0.035551764394351 0)
(0.99656866565628 -0.038247478204534 0)
(0.99673210330048 -0.040768914836148 0)
(0.99726297875431 -0.043860603934007 0)
(0.9976019476389 -0.046435071409019 0)
(0.99870874227067 -0.050042107998447 0)
(0.99999905911264 -0.00047418430671815 0)
(0.99997010145998 -0.0014530371110536 0)
(0.99991423345331 -0.002438306677225 0)
(0.99983085671681 -0.0034360219789976 0)
(0.99972009859038 -0.0044399780359639 0)
(0.99958223982228 -0.0054488941010005 0)
(0.99941767717732 -0.0064686453164295 0)
(0.99922707998495 -0.0075066859968391 0)
(0.99901107625261 -0.0085701542514928 0)
(0.99877081574943 -0.0096678946432519 0)
(0.99850763227928 -0.010809485571455 0)
(0.9982240513612 -0.01200567094447 0)
(0.9979223918913 -0.013263473922026 0)
(0.99760671747971 -0.014590558247881 0)
(0.99727952882525 -0.015989043227304 0)
(0.99694680011486 -0.017468427361033 0)
(0.99661033269722 -0.019028921040025 0)
(0.99627999167284 -0.020689189174185 0)
(0.99595507739801 -0.022442731874898 0)
(0.99565367810672 -0.024324631989796 0)
(0.99536728299214 -0.026304549808414 0)
(0.99513158903699 -0.028452341295071 0)
(0.99491624530161 -0.030675811828857 0)
(0.99479641714059 -0.033132592466303 0)
(0.99468671344571 -0.035582671580259 0)
(0.99475320585656 -0.038409303735319 0)
(0.99478350855195 -0.041019843300592 0)
(0.99515249291002 -0.044346175996195 0)
(0.99539416232033 -0.04697281345792 0)
(0.99632958980325 -0.051007912629421 0)
(0.99999886171552 -0.00045875600833308 0)
(0.99996525854525 -0.0014080176171448 0)
(0.99990033775094 -0.0023636220824025 0)
(0.99980259813014 -0.0033319362210399 0)
(0.99967220197142 -0.0043062141217269 0)
(0.99950949023062 -0.005284750458066 0)
(0.99931507752846 -0.006274152353489 0)
(0.99908956112444 -0.0072819096778118 0)
(0.99883322344869 -0.0083157266568143 0)
(0.99854692061193 -0.0093849268690017 0)
(0.9982319864573 -0.010499874190796 0)
(0.99789045894381 -0.011671851860029 0)
(0.99752478029147 -0.012909027361404 0)
(0.99713826163442 -0.014219236228316 0)
(0.99673417539939 -0.015606149121126 0)