/*--------------------------------*- C++ -*----------------------------------*\
| =========                 |                                                 |
| \\      /  F ield         | OpenFOAM: The Open Source CFD Toolbox           |
|  \\    /   O peration     | Version:  2112                                  |
|   \\  /    A nd           | Website:  www.openfoam.com                      |
|    \\/     M anipulation  |                                                 |
\*---------------------------------------------------------------------------*/
FoamFile
{
    version     2.0;
    format      ascii;
    arch        "LSB;label=32;scalar=64";
    class       volScalarField;
    location    "17.8";
    object      p;
}
// * * * * * * * * * * * * * * * * * * * * * * * * * * * * * * * * * * * * * //

dimensions      [0 2 -2 0 0 0 0];

internalField   nonuniform List<scalar> 
22000
(
0.026038587706632
0.026015869920816
0.025969127361051
0.025897150348779
0.02579941209517
0.025675942775276
0.025527022581725
0.025352939621456
0.025153907256215
0.024930089659331
0.024681644195255
0.024408750130543
0.024111617031069
0.023790490885142
0.023445643870639
0.023077380443307
0.022686021228678
0.02227192696859
0.021835466757135
0.021377070824859
0.020897155301027
0.02039623818202
0.019874768086613
0.019333382949267
0.018772524086129
0.018193017700429
0.017595204507183
0.01698024503352
0.016348150170712
0.015700696625416
0.026461846040519
0.026437958154905
0.02638980903344
0.026316274241069
0.026216777185076
0.026091271584642
0.025939984459695
0.025763176727495
0.025561047152605
0.025333748562974
0.025081425402483
0.024804243064613
0.024502395027023
0.024176112058128
0.023825648399616
0.023451293951246
0.023053349900121
0.022632165564905
0.022188088065606
0.021721542669415
0.021232917457937
0.02072273819258
0.020191410705531
0.019639604576877
0.019067683577843
0.018476549864441
0.017866377313225
0.017238476531951
0.016592445790274
0.015930242927779
0.027237709199739
0.027213039526647
0.027163388743379
0.027087713911204
0.026985489846866
0.026856669797854
0.026701451359527
0.026520060469182
0.026312664908087
0.026079391555236
0.025820359232305
0.025535707194319
0.025225598629411
0.024890234728905
0.024529835427805
0.024144661855092
0.023734978104763
0.023301109758025
0.022843362096026
0.022362148572017
0.021857805193033
0.021330870177657
0.020781672534128
0.020210944732953
0.019618915717232
0.019006654318066
0.018374051131024
0.01772278448439
0.017051730650396
0.016363380910969
0.028314770081854
0.028289286046319
0.02823799891042
0.028159852731934
0.02805432757625
0.027921375665682
0.02776117707373
0.027573926698947
0.027359754322046
0.027118748076578
0.026850986323461
0.02655656767781
0.02623560966643
0.025888268848501
0.025514713188977
0.025115158749
0.024689812138291
0.024238959853505
0.023762842307344
0.023261849698987
0.022736237913114
0.022186556134343
0.021613018784708
0.021016438579205
0.020396845733617
0.01975552955702
0.019091961949235
0.018408301807441
0.017702358250443
0.01697730108024
0.02964841538964
0.029622055198202
0.029568998757674
0.02948816011024
0.029379006054122
0.029241475332725
0.029075723200671
0.028881906357578
0.028660106107088
0.028410358077476
0.028132683570678
0.027827122707741
0.027493727660368
0.027132590530684
0.026743804988576
0.026327520795751
0.025883861839255
0.025413054386793
0.024915245402709
0.024390783583803
0.023839811070056
0.023262877004604
0.022660036823266
0.02203218936816
0.021379098896824
0.020702315017876
0.020000766984974
0.019277207134455
0.018528097901777
0.017757478164622
0.031199095099099
0.031171862966257
0.031117042114867
0.031033515956059
0.030920733049113
0.030778608476821
0.030607259652389
0.030406790770276
0.030177219120908
0.029918510924401
0.029630611297424
0.029313481031803
0.02896708368645
0.028591422873619
0.028186491268409
0.027752346169034
0.02728899862388
0.026796587672656
0.026275132908974
0.025724916231243
0.025145926931478
0.024538695286605
0.023903070199532
0.023240032103078
0.022549012897594
0.021831851863887
0.02108682300873
0.020317365318225
0.019518336266464
0.018694775227857
0.032931095986628
0.032903081256288
0.032846673581948
0.032760725877024
0.032644662711157
0.032498364488034
0.032321896830045
0.032115295991767
0.03187849826742
0.031611381761449
0.031313794245754
0.030985593943829
0.030626629774013
0.030236789363096
0.029815933878741
0.029363997355507
0.028880843195537
0.028366490342333
0.027820791685589
0.027243929610051
0.026635695936732
0.025996573408647
0.025326151380448
0.024625475851241
0.023893578055482
0.02313259611727
0.022340038307157
0.021520089541751
0.020665754229552
0.019783136528626
0.034811574101434
0.034782949964251
0.034725302343388
0.034637452089136
0.034518792176444
0.03436915691724
0.03418854676317
0.033976914880659
0.033734099182298
0.033459869900404
0.033153954912989
0.032816084868607
0.03244596596279
0.032043339556659
0.031607901593376
0.031139427809322
0.030637594806819
0.030102262759504
0.029533073197659
0.02893006848528
0.028292792140192
0.027621640591917
0.026915885339236
0.026176605840723
0.025402359972059
0.024595572991999
0.023752879935501
0.022879236333229
0.021965564474581
0.021019032242093
0.036809952108999
0.036780964606159
0.036722576819628
0.036633573287179
0.036513307371528
0.036361557538768
0.036178246486809
0.035963228907233
0.035716226564478
0.035436881675149
0.035124779180763
0.034779496286638
0.034400567304759
0.033987555353603
0.033539955444645
0.033057346852035
0.032539176894374
0.031985103229235
0.03139450673653
0.030767241719376
0.030102547113171
0.029400682881093
0.028660538109149
0.027883179144005
0.02706661525502
0.026213522480479
0.02531955961784
0.024390440637155
0.023414794302914
0.022400775488311
0.038897626169917
0.038868586692021
0.038810082809444
0.038720867092698
0.03860025099954
0.038447948765031
0.038263792491002
0.038047522694533
0.037798727146837
0.037516900213778
0.037201461648113
0.036851809926371
0.036467278569386
0.036047220015278
0.035590892024187
0.035097637600499
0.034566630582456
0.033997278639131
0.033388649417336
0.032740354501819
0.032051267244563
0.03132145095481
0.030549343506646
0.029735934033552
0.028878604666462
0.027980222160192
0.027035370411338
0.026050467455202
0.025011656828342
0.023927917735166
0.041047828774891
0.041019100162375
0.040961209031596
0.040872885086351
0.040753397809531
0.040602389728837
0.040419590404506
0.040204612410562
0.039956894794059
0.039675767091801
0.039360463365276
0.039010179209414
0.038624020088413
0.038201096641093
0.037740394253559
0.037240979903825
0.036701709859226
0.036121692466875
0.035499628216078
0.034834826246999
0.034125730530319
0.03337213748772
0.032571960761279
0.031726033296135
0.030831030018802
0.029889920057255
0.028896118708015
0.027856649405929
0.026754996014704
0.025600705947459
0.043235643211553
0.043207628455221
0.043151159375468
0.04306495564038
0.04294824757361
0.042800600158908
0.042621630508142
0.042410812098335
0.042167423463943
0.041890615979135
0.041579422303029
0.041232815482849
0.040849648757443
0.040428762355939
0.039968837250058
0.039468626807091
0.038926627916125
0.038341600465351
0.037711824799217
0.037036244984299
0.036312810952337
0.035540974437324
0.034718050475405
0.033844620064215
0.03291656963059
0.031936857069594
0.030897640735201
0.029806402667255
0.028643814131506
0.027419634451759
0.045438104482062
0.04541123154223
0.045357046464726
0.045274273546895
0.04516210841551
0.045020035496455
0.044847552728577
0.044643987040723
0.044408449065381
0.044139903275701
0.043837169923164
0.043498985084471
0.04312393227105
0.042710558276796
0.042257212240992
0.041762300438555
0.041223923265592
0.040640445747722
0.040009678620202
0.039330137855009
0.038599216895468
0.037815939140025
0.036976946873367
0.036082460929711
0.035127499495902
0.034114867260494
0.03303538489459
0.03189679892802
0.030676834927525
0.029385002192688
0.047634327651123
0.047609035457016
0.047558018122158
0.047480022352107
0.047374216469766
0.047240003526586
0.047076758961631
0.046883660268108
0.04665964801903
0.046403496696736
0.046113809281763
0.04578907675986
0.045427602071966
0.0450276231387
0.044587138430433
0.04410417998764
0.043576421353352
0.04300179155703
0.042377588678421
0.041701840122506
0.040971325422163
0.04018455385246
0.039337425252932
0.038429680009841
0.037455392169
0.03641704830447
0.03530405942657
0.034124192647377
0.032852121120555
0.03149653356784
0.049805628691775
0.049782351415543
0.04973537868317
0.049663498424326
0.049565860478784
0.049441789061931
0.049290537805043
0.049111136663844
0.048902359754101
0.048662794802005
0.048390829596534
0.048084709318335
0.047742453623195
0.047361984332107
0.046940939636593
0.046476960292287
0.045967272368756
0.045409335351457
0.044799900816369
0.044136452839539
0.043415108200358
0.042633776909147
0.041787553941498
0.040875572855605
0.039890896213617
0.038835504523051
0.037697340888827
0.036483902724124
0.035166730460481
0.033753010275938
0.051935615863948
0.051914770313939
0.05187268388499
0.05180820692507
0.05172048207372
0.051608759305908
0.05147217489752
0.051309618305647
0.051119706653481
0.050900850730863
0.050651232603825
0.050368859015265
0.050051472571421
0.049696681229919
0.049301763583682
0.04886396235266
0.048380048090503
0.047846988489482
0.047260966403774
0.04661887680753
0.045916136778382
0.045149976919659
0.044314636309961
0.043408510710077
0.04242359596252
0.04136116407095
0.040207651429173
0.038969950611115
0.037616425961776
0.036151965446807
0.054010234544714
0.053992207171542
0.053955790591237
0.053899918752533
0.053823739004901
0.053726434670408
0.053607032856155
0.053464294203144
0.053296694008253
0.053102482284984
0.052879652026191
0.052625987217134
0.052338969052476
0.052015904138187
0.051653723216611
0.051249275918127
0.050798881667504
0.050299007557966
0.049745260515565
0.049133912882797
0.048459660046433
0.047718983030337
0.046905228946079
0.046015926800511
0.045041964552671
0.043983687659402
0.042826014995063
0.0415748652827
0.040195437478172
0.038689395919718
0.056017761104321
0.056002898889947
0.055972856548435
0.055926674405137
0.055863518137066
0.055782512855899
0.055682587457092
0.055562390121004
0.055420274818656
0.055254352811532
0.055062451027753
0.054842153963457
0.054590705894261
0.054305135198929
0.053982047917662
0.053617918571724
0.053208632923419
0.052750163369282
0.052237548176787
0.051666420793956
0.051030747686008
0.050326206741717
0.049545234810476
0.04868437828246
0.047733392669805
0.046691467962442
0.045542017846326
0.044289571454752
0.042896305781726
0.041359572643198
0.057948744409922
0.057937345804265
0.057914287594891
0.057878740004336
0.057829900152568
0.057766844683003
0.057688417423347
0.057593173584823
0.057479370910938
0.057345009684939
0.057187780079484
0.057005097254443
0.056794000190646
0.05655127143233
0.056273225851747
0.055955994781131
0.055595060750112
0.055185925224634
0.054723078185507
0.054201519647108
0.053614491056789
0.052956838469787
0.052220075768281
0.051399687368489
0.050484287300131
0.049471708860349
0.048343872913279
0.047103415285983
0.04570975947688
0.044154773985545
0.059795895792919
0.059788212598036
0.059772648446018
0.059748526043747
0.05971508684743
0.059671370865687
0.059616153389276
0.059547918235155
0.059464853974609
0.059364881844379
0.059245591203113
0.059104265433586
0.058937776630921
0.058742701269615
0.058515105020698
0.058250820461867
0.057944969138457
0.057592624762438
0.057187761795681
0.056724782582446
0.056196211936374
0.055596079301693
0.054914936119222
0.05414718763451
0.053280248566469
0.052310542935378
0.051218551012664
0.050004379919466
0.048625394044289
0.047065121434071
0.061553926951527
0.061550169721618
0.061542518189261
0.061530457993703
0.061513288112782
0.061490029344859
0.061459406893321
0.061419855721286
0.061369522633778
0.061306281144933
0.061227659875886
0.061130855221088
0.061012619961284
0.060869371346357
0.060696977216379
0.060491023948949
0.060246327196894
0.059957590158958
0.059618320976615
0.059222389879135
0.058761626070648
0.058229322742457
0.057614991621024
0.056912050094891
0.056106419889031
0.055193346600472
0.054151517592139
0.052979258879358
0.051630676004359
0.050080641378777
0.063219338531912
0.063219678581252
0.063220284990079
0.063220796088624
0.063220571013536
0.063218629103369
0.06321366491713
0.063204098167109
0.063188070689074
0.063163431455913
0.063127677683129
0.063077958936458
0.063010966675079
0.062923014414748
0.062809839023696
0.062666832834261
0.06248858097987
0.062269467789469
0.062002620574554
0.061681433587873
0.061297122510505
0.06084234183318
0.060305559396195
0.059679422291358
0.058947855026363
0.058105440700813
0.057127192262428
0.056012673763063
0.054709130526874
0.053189889510849
0.064790249780108
0.064794743652704
0.064803812441314
0.064817262409115
0.064834500464533
0.064854522227374
0.064875980675806
0.064897326460682
0.06491676966422
0.064932178260034
0.064941037955917
0.064940460149051
0.064927116500077
0.064897268516104
0.064846602643348
0.064770360150982
0.064662996878653
0.064518593485825
0.064330047229668
0.06409022819685
0.063789980644595
0.06342118551866
0.062971669146453
0.062433163295551
0.061787993157456
0.061030057004061
0.060128650257836
0.059085551438218
0.057832975893919
0.056365373052159
0.066266454969618
0.066274900175629
0.066292188070326
0.066318530567509
0.066353437690244
0.066395762919569
0.066444037389864
0.066496835040083
0.066552428230602
0.066608744167372
0.066663344993778
0.066713349854458
0.066755434753467
0.066785826312355
0.066800219089932
0.066793719268256
0.066760753497542
0.066695059322233
0.066589515943883
0.066436267116143
0.066226253675642
0.065949902778716
0.065595592841334
0.065152381016155
0.064604324920089
0.06394076937302
0.063132969207043
0.062172307057284
0.060976323572784
0.059535880038539
0.067649830627927
0.067662074008045
0.067686733862794
0.067725135101089
0.067777102379092
0.067841207334927
0.067915389307835
0.067999219166645
0.068090773495243
0.068187828680331
0.068288033780892
0.068388658047983
0.068486519206714
0.068577894762782
0.068658590284873
0.068723666739997
0.068767615424862
0.068783847216546
0.068765389041673
0.068703610488257
0.068590036824113
0.068413045708898
0.068162952832297
0.067823566514219
0.067385642268319
0.066825308988944
0.066136104680639
0.065275055522663
0.064202464027013
0.062725141935638
0.015078242503778
0.014483828709054
0.01387756406639
0.013260604836864
0.012634037105769
0.011998730369801
0.011355393989347
0.010704678221052
0.01004725091777
0.0093838320477373
0.0087151924733829
0.0080421340395865
0.0073654717313622
0.0066860258422851
0.0060046216026102
0.0053220902130357
0.0046392697486424
0.0039570039622698
0.0032761403022304
0.0025975277795113
0.0019220166318356
0.0012504597917993
0.00058371966068427
-7.7322875242581e-05
-0.0007317823454794
-0.0013789996553709
-0.0020183440971517
-0.0026490334441318
-0.0032702431090124
-0.0038811862413531
-0.0044811330160358
-0.0050694013210898
-0.0056453466996861
-0.0062083521970709
-0.0067578290620989
-0.00729321423342
-0.0078139807876064
-0.008319629780802
-0.0088097077611143
-0.0092837832327925
-0.009741484618748
-0.010182443691801
-0.010606383065776
-0.011012986371363
-0.011402098483571
-0.011773427029075
-0.01212700619232
-0.012462516886639
-0.012780393311488
-0.013080289919832
0.015296610095228
0.014694168473081
0.014078182973116
0.013451126625916
0.012814659745924
0.012169607821873
0.011516394711093
0.010855404117725
0.010187156799776
0.0095123339037836
0.0088317186523236
0.0081461290297455
0.0074563840549408
0.0067633028705656
0.0060677157127118
0.0053704710273774
0.0046724360799
0.0039744941220319
0.003277539994956
0.0025824757963317
0.0018902046788731
0.0012016221881569
0.0005175985287148
-0.00016104604080959
-0.00083353988415365
-0.0014988518242773
-0.0021559379134645
-0.0028039642255361
-0.0034421804526933
-0.0040698391806399
-0.0046861893399361
-0.0052904899628705
-0.0058820260559221
-0.0064601121306323
-0.0070241036231277
-0.0075733882408716
-0.0081074023711647
-0.0086256080358799
-0.0091275304640838
-0.0096127035692334
-0.010080755201594
-0.010531279863115
-0.010964032401642
-0.011378634804492
-0.011775018381872
-0.012152746921438
-0.012512020209887
-0.012852094806536
-0.013173529167734
-0.013474335652109
0.015706796490154
0.015082210754202
0.014440254682093
0.013786400163558
0.013123747854184
0.012453203515202
0.011774727469232
0.01108826873914
0.010394152322215
0.0096930697289393
0.0089858991301661
0.0082735413334392
0.0075568568264952
0.0068366813646813
0.0061138596135406
0.00538926280923
0.0046637895501145
0.0039383589210134
0.0032139024251978
0.0024913575008537
0.0017716633782912
0.001055759594273
0.00034458943366575
-0.00036088948213056
-0.0010596946914069
-0.0017509091536396
-0.0024336548540642
-0.0031070575254214
-0.0037702687021807
-0.0044224655802313
-0.0050628495269841
-0.0056906443178706
-0.00630510853147
-0.006905532692956
-0.0074912564033113
-0.0080616489033053
-0.0086161414161352
-0.0091541799176659
-0.0096752993801804
-0.010179012167102
-0.010664978821318
-0.011132750347734
-0.011582158864737
-0.0120127217397
-0.012424537046142
-0.012816899147741
-0.013190336029071
-0.013543327462462
-0.013876791654165
-0.014185798702836
0.016286786785437
0.015627024980866
0.014944511882611
0.014249510854227
0.013547283759279
0.01283875170923
0.01212309878989
0.011399596355145
0.010668280483775
0.0099298616064281
0.0091853482991356
0.008435740573835
0.0076819292849381
0.0069247405797926
0.0061650057217844
0.0054035948907979
0.0046414179196805
0.0038794129651632
0.0031185347222797
0.0023597470384666
0.0016040191948285
0.00085232429709691
0.00010563589267768
-0.00063507878141637
-0.0013688706800894
-0.0020948025336547
-0.0028119490291302
-0.0035194039918477
-0.0042162839593293
-0.0049017297216174
-0.0055749149025285
-0.0062350423937132
-0.0068813571588676
-0.0075131328552904
-0.0081296979563502
-0.0087304011290051
-0.0093146683253549
-0.0098819190962174
-0.010431696305985
-0.010963470270082
-0.011476937105311
-0.011971566101155
-0.012447285193326
-0.012903434061517
-0.013340336839376
-0.013756859382266
-0.014153986201764
-0.014528963784588
-0.014883104711407
-0.015206684591461
0.017024034519544
0.016317951353225
0.015582067096865
0.014833283960018
0.014079724964201
0.013322204971455
0.012558779819354
0.011787794689139
0.011008917587962
0.010222902843191
0.0094309363549092
0.0086341401796329
0.0078334303133575
0.0070296061200088
0.0062234693763204
0.0054158782188459
0.0046077464987558
0.0038000246963149
0.0029936822337536
0.0021896973614762
0.0013890524556591
0.00059273203080526
-0.0001982801884178
-0.00098300454995329
-0.0017604690822322
-0.0025297107840878
-0.0032897813420062
-0.0040397513913943
-0.004778717874433
-0.0055058031875668
-0.00622016545192
-0.0069209902777635
-0.0076075094472877
-0.0082789780930331
-0.008934715140729
-0.0095740469734697
-0.010196397470615
-0.010801154325423
-0.011387874516222
-0.011955973523828
-0.012505197191591
-0.013034904449744
-0.013545151636781
-0.014035034289142
-0.014505175687176
-0.014953852050311
-0.015382653589678
-0.015787153803717
-0.016169227076965
-0.016512737327505
0.017910847077243
0.017148344283972
0.016347083133468
0.015532641157947
0.014716747062448
0.013899957407808
0.013078818948885
0.012250501958626
0.011414246673981
0.010570896708078
0.009721874272748
0.0088684522714859
0.0080115700487678
0.0071519855073217
0.0062904582072258
0.0054278270452893
0.004565005279298
0.0037029512048865
0.0028426430712727
0.0019850662794325
0.0011312092893864
0.00028206350550845
-0.00056137828790513
-0.0013981243292119
-0.0022271889843364
-0.0030475982672696
-0.0038583949279274
-0.0046586404855496
-0.0054474240444587
-0.0062238588797165
-0.0069870960627756
-0.0077363110260125
-0.008470730930155
-0.0091895995376356
-0.0098922364213956
-0.01057795167161
-0.01124617925174
-0.011896277289864
-0.012527832636681
-0.013140199566225
-0.013733198101677
-0.014306052691689
-0.014858994132732
-0.01539081051158
-0.015902519419383
-0.016391648905477
-0.016860582566306
-0.017302768510597
-0.017720830664648
-0.018090420611037
0.018942329774093
0.018113987471765
0.017235820476949
0.016344361940471
0.015455728892907
0.014570006206081
0.013681796498186
0.012786834736605
0.011883888213867
0.010973952159786
0.010058752278708
0.0091397400461538
0.0082178722846225
0.0072938492008522
0.0063683757520269
0.0054422653899308
0.0045164278510781
0.003591825867202
0.0026694416978908
0.001750262239234
0.00083527581490276
-7.4526104133679e-05
-0.00097814983774025
-0.0018746021049138
-0.002762896469354
-0.0036420581254907
-0.0045111298185655
-0.0053691728565303
-0.0062152777228393
-0.0070485575483043
-0.007868166579942
-0.0086732799915942
-0.009463132029221
-0.010236964360048
-0.010994109828143
-0.011733869687387
-0.012455702794173
-0.013158940831678
-0.013843220347328
-0.014507828597432
-0.015152691232592
-0.015776873216224
-0.016380838027182
-0.016962998472218
-0.017524882811657
-0.018063096670059
-0.018581037349376
-0.01906952286344
-0.019532140592028
-0.019934310782598
0.020116077716094
0.019212997725188
0.01824668761368
0.017267208041468
0.016295885810155
0.015332042588171
0.01436783637209
0.013397293126036
0.012418681098561
0.011433229770152
0.010443042840054
0.0094497769544793
0.0084543978784829
0.0074575301372176
0.0064598128910014
0.0054620309533315
0.0044650898787828
0.0034699555407367
0.002477610943721
0.001489039142056
0.0005052218265
-0.0004728566482328
-0.0014442095292606
-0.0024078500953841
-0.0033627990075631
-0.0043080888695889
-0.0052427713124201
-0.0061659166534701
-0.0070766270776331
-0.0079740262085337
-0.0088572837394094
-0.0097255859658596
-0.010578187831745
-0.011414340343276
-0.012233405785972
-0.013034686666689
-0.013817686919732
-0.014581718375647
-0.015326495209434
-0.016051234993871
-0.016756012702298
-0.017439709751247
-0.018103098817635
-0.018744143645833
-0.019365026883762
-0.019961235788795
-0.020537444084579
-0.021081278247508
-0.021597566083089
-0.022039300734868
0.021431508495701
0.020445174454078
0.019379614201866
0.018301320814159
0.017237687533765
0.016186884504045
0.015138051103195
0.014083223033953
0.013020170270916
0.011950463779711
0.010876668680711
0.0098006699790803
0.0087234283301477
0.0076454744335682
0.0065673733805198
0.005489881325045
0.0044139021525527
0.0033404051006112
0.0022703711835227
0.0012047752531998
0.00014458698642337
-0.00090922237625321
-0.001955679435705
-0.0029938109238844
-0.0040226522226045
-0.0050412522806724
-0.0060486815812814
-0.0070440298999562
-0.0080264231504822
-0.0089950079131466
-0.0099489836566731
-0.01088756158279
-0.011810034616663
-0.012715677375344
-0.013603902448796
-0.01447402779596
-0.015325629862932
-0.016158011181317
-0.016971001818704
-0.017763750008303
-0.018536538563194
-0.019288040844067
-0.020019437649261
-0.020728162710181
-0.021417233607168
-0.022080803413482
-0.022725147711721
-0.023334089134633
-0.023914050567151
-0.024403169385403
0.022889280379714
0.021811447402356
0.020635546071265
0.019447772809601
0.018282461565724
0.017136125499064
0.015994234956673
0.014846554817023
0.013690394034502
0.012527800015165
0.011361887673902
0.01019478752248
0.0090274363993282
0.0078602518982707
0.0066937197139647
0.0055285718561497
0.0043657156624031
0.003206125860687
0.0020507803991495
0.00090064246991509
-0.00024333459124172
-0.0013801973998946
-0.0025089915070163
-0.003628763884367
-0.0047385727404248
-0.0058374929288186
-0.0069246245209398
-0.0079990882671023
-0.0090600468513885
-0.010106683128482
-0.011138242884619
-0.012153978282455
-0.013153240923545
-0.014135346929119
-0.015099785987156
-0.016045908862398
-0.016973400017986
-0.017881566924426
-0.018770406378055
-0.019638999741553
-0.020487915975944
-0.021315593592932
-0.022123751969999
-0.022909200911085
-0.023676023527315
-0.02441678844308
-0.025139776485212
-0.025824311568805
-0.026478868140888
-0.027024036665771
0.024490776556127
0.023313409584144
0.022016041340949
0.020708229027014
0.019432112788383
0.018181899339789
0.016938661245978
0.015689628403395
0.014431735002308
0.013167670291513
0.011901190553116
0.0106346785284
0.0093690202717458
0.008104502613277
0.0068415324332849
0.0055808269033535
0.0043233057502854
0.0030699529679285
0.0018217428007661
0.00057962455925193
-0.00065546757242547
-0.0018826013744383
-0.0031008454096679
-0.0043092724264869
-0.0055069712502839
-0.00669305355847
-0.0078666605340783
-0.0090269552170526
-0.01017315107296
-0.011304482646442
-0.01242026096611
-0.013519797120243
-0.014602526289157
-0.015667826458097
-0.016715297398467
-0.017744344400168
-0.018754805966237
-0.019746011801396
-0.020718192264675
-0.021670365560289
-0.02260349042303
-0.023515739224655
-0.024409541558956
-0.025280972164519
-0.026135479862408
-0.026963754209899
-0.027776602114842
-0.028548055304627
-0.029289263194933
-0.029900283256134
0.02623768019404
0.024952920515614
0.023522920170838
0.022084645640134
0.020688857052462
0.019326636851045
0.017973860547232
0.016614994545105
0.015246746799416
0.013872645191245
0.012497174679142
0.011122962555819
0.0097508114456661
0.0083808621744701
0.0070134501438156
0.0056492940996283
0.0042893384013279
0.0029345819535482
0.0015859966859331
0.00024451713660427
-0.0010889432557963
-0.0024134753318877
-0.0037281733479854
-0.0050321384593654
-0.0063244941824015
-0.0076044027271843
-0.0088710587421465
-0.010123679038118
-0.011361542633224
-0.012583951818384
-0.013790305030644
-0.014979993050953
-0.016152563575911
-0.017307479899281
-0.018444493176012
-0.019563087272707
-0.02066331362847
-0.021744544217465
-0.022807330857295
-0.023850631670671
-0.024875931794504
-0.025881098372296
-0.026869494537061
-0.027836325982822
-0.028788792178115
-0.029715359303887
-0.030630024336611
-0.031500621767773
-0.03234181514918
-0.033029772518814
0.028131541788995
0.026731714526055
0.025157931533869
0.023578993559308
0.022054989481072
0.020572863133404
0.019102436572165
0.017625249271993
0.016138009053943
0.014645308448541
0.013152437697288
0.011662241694075
0.010175399072285
0.0086918965606528
0.0072120164937599
0.0057365021977669
0.0042663390274537
0.0028025484714885
0.0013461027600347
-0.00010207635144024
-0.0015410944091854
-0.0029700652951714
-0.0043881118892603
-0.0057943671982767
-0.0071879857150996
-0.0085681954965404
-0.0099342520233817
-0.011285437781637
-0.01262111613845
-0.013940675826858
-0.015243625869748
-0.01652945816235
-0.017797867813533
-0.019048429495506
-0.020281095250847
-0.021495454802842
-0.022691847764964
-0.023869708465068
-0.025030026468364
-0.026171698382953
-0.027296919224222
-0.028403196806172
-0.029495123004017
-0.030566866249776
-0.031627869359001
-0.032663956707897
-0.033693155661246
-0.03467605318466
-0.035631970286781
-0.03640946088651
0.030173405076859
0.028651047613636
0.026922447283623
0.025193000972998
0.023532656648306
0.021922987066957
0.020326874716752
0.018722866062208
0.017107985586279
0.015488140343786
0.01386947979651
0.012255015754791
0.010645259935478
0.0090400470782719
0.0074396365822191
0.0058448282656159
0.0042566679028041
0.0026762088734777
0.0011044297821662
-0.00045775485815987
-0.0020094633978077
-0.0035498272417663
-0.0050779949336581
-0.0065931404320595
-0.008094465526493
-0.0095812463704542
-0.011052803291276
-0.012508503463316
-0.01394781587173
-0.015370233800405
-0.016775402210428
-0.018162938107807
-0.019532721543201
-0.020884468350044
-0.022218390165041
-0.023534211919532
-0.02483265250111
-0.026113228513513
-0.027377516559897
-0.028624339199056
-0.029856848429927
-0.031072111223906
-0.032276353548508
-0.033462484266204
-0.034642848097272
-0.03580011301918
-0.036957412909731
-0.038066886769132
-0.039153978532316
-0.040035550200105
0.032363435011571
0.030711361499091
0.028817182795493
0.026927924402585
0.025123661628886
0.023379125589803
0.021649380377555
0.019910053239894
0.01815890441659
0.016403416961418
0.014650619211646
0.012903612913641
0.01116269923576
0.0094275799345419
0.0076985381706801
0.0059764685810403
0.0042624994399998
0.0025577277641239
0.00086314716160517
-0.00082032415154253
-0.0024918060014025
-0.0041504362302555
-0.0057953816083479
-0.0074258493591227
-0.0090411372235721
-0.0106405131599
-0.012223386870082
-0.013789227409614
-0.015337622496653
-0.016868186651638
-0.018380726218936
-0.019875011043646
-0.02135114694192
-0.022809026921284
-0.024249182239105
-0.025671513579697
-0.027077218136397
-0.028465921845488
-0.029839960687341
-0.03119806324969
-0.032544648654073
-0.03387621727331
-0.035201172159549
-0.036510850176774
-0.037821401393451
-0.039111688755912
-0.040411386466389
-0.041662728186915
-0.042899263329099
-0.043901453923911
0.034700600819827
0.032911983008662
0.030841943514396
0.028784339617255
0.026829274693158
0.024942920796058
0.023071709677679
0.021188609441596
0.019292642583482
0.017393121817405
0.015497921913532
0.013610129272663
0.011729801161098
0.0098565486790812
0.0079907414356768
0.0061334154613157
0.0042858052027772
0.0024490643366118
0.00062421578727287
-0.0011878022184183
-0.0029860946475694
-0.004769793488034
-0.0065380759282001
-0.0082901739456267
-0.010025403627355
-0.011743124877977
-0.01344282715647
-0.015124073198545
-0.016786577730108
-0.018430095837168
-0.020054620109476
-0.021660107612216
-0.023246924848929
-0.024815192938458
-0.026365816051595
-0.027898938516273
-0.029416318442649
-0.03091776272458
-0.032406520577614
-0.033881248707785
-0.0353479580522
-0.036802443988302
-0.038255949336897
-0.039697783345669
-0.04114910655901
-0.042584066382252
-0.044040821482727
-0.045449996882553
-0.046855830613017
-0.047997067504585
0.037182386942437
0.035250876193759
0.03299540769195
0.030761935626956
0.028650044617764
0.026615372613193
0.024595021686758
0.022559797996278
0.020510623115283
0.018458860232338
0.016413130808749
0.01437637567742
0.012348391985065
0.010328771445067
0.0083180517981175
0.0063174607987025
0.0043283650152225
0.0023519936012273
0.00038941834833166
-0.0015583790211101
-0.0034904643097763
-0.0054059410672327
-0.0073039760694784
-0.0091838107617597
-0.011044794839169
-0.012886356440089
-0.014708066396601
-0.016509586993515