/*--------------------------------*- C++ -*----------------------------------*\
| =========                 |                                                 |
| \\      /  F ield         | OpenFOAM: The Open Source CFD Toolbox           |
|  \\    /   O peration     | Version:  2112                                  |
|   \\  /    A nd           | Website:  www.openfoam.com                      |
|    \\/     M anipulation  |                                                 |
\*---------------------------------------------------------------------------*/
FoamFile
{
    version     2.0;
    format      ascii;
    arch        "LSB;label=32;scalar=64";
    class       volVectorField;
    location    "17.8";
    object      U;
}
// * * * * * * * * * * * * * * * * * * * * * * * * * * * * * * * * * * * * * //

dimensions      [0 1 -1 0 0 0 0];

internalField   nonuniform List<vector> 
22000
(
(1.0000010716338 -2.6186860418939e-05 0)
(1.0000271220711 -7.8392015857476e-05 0)
(1.0000772080402 -0.0001306938277724 0)
(1.0001525195527 -0.00018295991395449 0)
(1.0002535387181 -0.00023512600068405 0)
(1.0003802296433 -0.00028717258035892 0)
(1.0005323358457 -0.0003390644254996 0)
(1.0007096240692 -0.00039078016357808 0)
(1.0009119482645 -0.00044231210741605 0)
(1.0011392355924 -0.00049367266490452 0)
(1.0013914224441 -0.00054482156327795 0)
(1.0016684377182 -0.00059571261122985 0)
(1.0019701353455 -0.00064621405603336 0)
(1.0022963377274 -0.00069627281968332 0)
(1.0026467667787 -0.0007457186910648 0)
(1.0030211700677 -0.00079459303040116 0)
(1.003419167193 -0.00084265054173031 0)
(1.0038404887894 -0.00089010203196774 0)
(1.0042846341084 -0.00093647126056061 0)
(1.0047513635998 -0.00098232503905997 0)
(1.0052399854901 -0.0010266459288316 0)
(1.0057503850375 -0.0010708253473992 0)
(1.006281547731 -0.0011126040917481 0)
(1.0068336789655 -0.0011552696322708 0)
(1.0074051786116 -0.0011936975819786 0)
(1.0079969509418 -0.0012355216413504 0)
(1.0086062874123 -0.0012690261403453 0)
(1.0092355216176 -0.0013118046515436 0)
(1.009879824884 -0.0013370306911503 0)
(1.0105444417266 -0.0013850804228771 0)
(1.0000005204889 -7.6977972862443e-05 0)
(1.0000264140794 -0.0002305683983721 0)
(1.0000765041523 -0.0003846213363547 0)
(1.0001519240278 -0.00053867631653827 0)
(1.0002532083617 -0.00069249587061137 0)
(1.0003803901653 -0.0008459993140979 0)
(1.0005332458072 -0.00099907363693128 0)
(1.0007115558605 -0.0011516594537486 0)
(1.0009151718509 -0.0013037488823291 0)
(1.0011440390538 -0.0014553947702873 0)
(1.0013980991042 -0.001606489771198 0)
(1.0016773235909 -0.0017568979714186 0)
(1.0019815627736 -0.0019062280906303 0)
(1.0023107044622 -0.0020543139480072 0)
(1.0026644295629 -0.0022006537918517 0)
(1.0030425986478 -0.0023453590274891 0)
(1.0034447144695 -0.0024877180948095 0)
(1.0038707310983 -0.0026283317433326 0)
(1.0043198680728 -0.0027658265210664 0)
(1.0047923498883 -0.0029018212993265 0)
(1.0052868505457 -0.0030333944308328 0)
(1.0058042397056 -0.0031645200825577 0)
(1.0063421047106 -0.0032887378234226 0)
(1.0069027553313 -0.0034154232645533 0)
(1.007481566695 -0.0035299725581014 0)
(1.0080839335176 -0.0036541046933357 0)
(1.008700684517 -0.0037545353370452 0)
(1.009343722596 -0.003881178783793 0)
(1.0099945132776 -0.0039580751422509 0)
(1.0106788019978 -0.0040993959591564 0)
(1.0000005595451 -0.00012541590277633 0)
(1.0000272107741 -0.00037568425504519 0)
(1.0000786527733 -0.00062691456534794 0)
(1.0001559337286 -0.00087828277769301 0)
(1.0002595278956 -0.0011293415874202 0)
(1.0003894562083 -0.0013799225532786 0)
(1.0005454949472 -0.001629822634654 0)
(1.000727436325 -0.0018789586704743 0)
(1.0009351323663 -0.0021273581455927 0)
(1.0011685597967 -0.0023751563287908 0)
(1.0014276712198 -0.0026222090667681 0)
(1.0017125049183 -0.002868309234815 0)
(1.0020229089798 -0.003112809979719 0)
(1.0023588750925 -0.0033554387351956 0)
(1.0027200268153 -0.0035953603154632 0)
(1.003106405218 -0.0038327715006998 0)
(1.0035173374317 -0.0040664889290711 0)
(1.0039531352628 -0.0042975318958618 0)
(1.0044125812129 -0.0045236050005567 0)
(1.004896650503 -0.004747432012227 0)
(1.0054029950697 -0.004964118507648 0)
(1.0059341025287 -0.005180335705076 0)
(1.0064852456344 -0.0053852584261454 0)
(1.0070622642623 -0.0055946105118831 0)
(1.0076553856198 -0.005783926431911 0)
(1.008277722629 -0.0059896029452135 0)
(1.008908772742 -0.0061558963448711 0)
(1.009577366221 -0.0063663987183896 0)
(1.0102401421138 -0.0064939562083641 0)
(1.010960427771 -0.0067296569986121 0)
(1.0000005929337 -0.00017239825985329 0)
(1.0000279980156 -0.00051618264861725 0)
(1.0000808676918 -0.00086137394630999 0)
(1.0001602521485 -0.0012068005685963 0)
(1.000266595426 -0.0015518124872092 0)
(1.0003998944554 -0.0018961494334899 0)
(1.0005598990794 -0.0022395149075904 0)
(1.000746399401 -0.0025818278715055 0)
(1.0009592425286 -0.0029232043072368 0)
(1.0011984506821 -0.00326392507235 0)
(1.0014639952433 -0.0036038549109377 0)
(1.0017560102878 -0.0039427470704902 0)
(1.0020743430272 -0.0042797066502995 0)
(1.0024191319689 -0.0046143698544391 0)
(1.0027899234978 -0.0049455630780143 0)
(1.0031870138441 -0.0052735969222761 0)
(1.0036094897372 -0.0055968000912035 0)
(1.004058166687 -0.0059166634210139 0)
(1.0045312234151 -0.0062299161869703 0)
(1.0050306871278 -0.006540487508311 0)
(1.0055527912503 -0.0068413737145315 0)
(1.0061022862131 -0.0071421573193878 0)
(1.0066712246521 -0.007427334594574 0)
(1.0072703752201 -0.0077194532828132 0)
(1.0078828012859 -0.0079834750145518 0)
(1.0085323848563 -0.0082715327830493 0)
(1.0091828629524 -0.0085038181185406 0)
(1.0098866769427 -0.0087999641349489 0)
(1.0105659604423 -0.0089780220352553 0)
(1.0113364151472 -0.0093112980553101 0)
(1.0000006320231 -0.00021803679931307 0)
(1.0000288181806 -0.0006524258449974 0)
(1.0000831710945 -0.0010886604283853 0)
(1.0001647582559 -0.0015251928198261 0)
(1.000274004651 -0.0019611615094043 0)
(1.0004108860037 -0.0023962109495705 0)
(1.0005751180764 -0.0028299521004641 0)
(1.0007664842325 -0.0032623428054668 0)
(1.0009848238805 -0.0036936581533247 0)
(1.0012302188922 -0.0041244074944704 0)
(1.0015026700734 -0.0045545234714598 0)
(1.0018024388541 -0.0049837584595071 0)
(1.0021293791893 -0.0054109758145195 0)
(1.00248382107 -0.0058357362468446 0)
(1.0028652225284 -0.0062565181778407 0)
(1.0032742073618 -0.0066737802179148 0)
(1.0037095714524 -0.0070853405830934 0)
(1.0041727696459 -0.0074932281554792 0)
(1.0046612378099 -0.0078931265416466 0)
(1.0051783281948 -0.0082902978861733 0)
(1.0057185165576 -0.0086754517566525 0)
(1.0062893890893 -0.0090613572435412 0)
(1.0068789976163 -0.0094274263087441 0)
(1.0075042704789 -0.0098036453980398 0)
(1.0081393618077 -0.010143487064973 0)
(1.0088215823919 -0.010516192745651 0)
(1.0094950700033 -0.010815827144242 0)
(1.0102416558323 -0.01120113320677 0)
(1.0109405626865 -0.011430756571443 0)
(1.0117726142555 -0.011867095254681 0)
(1.0000006754952 -0.00026232994730732 0)
(1.000029600208 -0.00078439220884902 0)
(1.0000853508461 -0.0013087623196042 0)
(1.0001690105965 -0.0018334822263931 0)
(1.0002809835685 -0.0023574611583087 0)
(1.0004212259564 -0.0028802379237616 0)
(1.0005894182845 -0.0034013290445641 0)
(1.0007853394645 -0.0039207729130026 0)
(1.001008823502 -0.004439085199956 0)
(1.0012600277244 -0.0049570989075056 0)
(1.0015389953377 -0.0054748818847222 0)
(1.0018461465759 -0.0059922289310922 0)
(1.0021813541627 -0.0065077682400737 0)
(1.0025451833669 -0.0070210020038631 0)
(1.0029370011625 -0.0075300503382446 0)
(1.0033578266957 -0.0080355583539986 0)
(1.0038061303537 -0.008534810251274 0)
(1.0042841278228 -0.0090304476389049 0)
(1.0047884046784 -0.0095170325622494 0)
(1.0053238750561 -0.010001302116935 0)
(1.005882983905 -0.010471485481955 0)
(1.0064766406519 -0.010943842697759 0)
(1.007088256303 -0.011392256964591 0)
(1.0077419495823 -0.011854832123929 0)
(1.0084015283909 -0.012272544897523 0)
(1.0091199397863 -0.012733259186777 0)
(1.0098185588276 -0.013102639684936 0)
(1.0106133825704 -0.013581923454065 0)
(1.0113338183407 -0.013865247688682 0)
(1.0122363598111 -0.014411682522472 0)
(1.0000007204247 -0.00030516807279747 0)
(1.0000302495076 -0.00091173606264571 0)
(1.0000871359074 -0.0015211093252159 0)
(1.0001724752317 -0.0021308838644545 0)
(1.0002866502872 -0.0027397191009283 0)
(1.000429600271 -0.0033470345930021 0)
(1.0006009706615 -0.0039522493066238 0)
(1.0008005386923 -0.0045555282054199 0)
(1.0010281368394 -0.0051577182755881 0)
(1.0012840138963 -0.0057600816884941 0)
(1.0015682706556 -0.0063628968698104 0)
(1.0018815168107 -0.0069660491685496 0)
(1.0022236600814 -0.0075679409010409 0)
(1.0025955426529 -0.0081680347004657 0)
(1.0029964464367 -0.0087640846856956 0)
(1.003427847411 -0.0093569639066922 0)
(1.0038878730499 -0.0099434031155352 0)
(1.0043796045228 -0.01052673439292 0)
(1.0048987047203 -0.011100326921984 0)
(1.0054518453067 -0.011672536179997 0)
(1.0060292409491 -0.012228922619862 0)
(1.0066455148039 -0.012789540481871 0)
(1.0072789552691 -0.013322307323253 0)
(1.007961684255 -0.013874117121148 0)
(1.0086460672565 -0.014372455650143 0)
(1.009402406632 -0.01492530742398 0)
(1.0101269002572 -0.015367681194246 0)
(1.0109734056242 -0.015946661247096 0)
(1.0117162456248 -0.016286797735922 0)
(1.0126957620917 -0.01695136894986 0)
(1.0000007648535 -0.00034634710898934 0)
(1.0000306748341 -0.0010338366252421 0)
(1.0000882629159 -0.0017246698817601 0)
(1.0001746367937 -0.0024159599613189 0)
(1.0002901593838 -0.0031060949792983 0)
(1.00043475568 -0.0037943616234944 0)
(1.0006080359364 -0.0044800798014604 0)
(1.0008097779868 -0.0051635915066708 0)
(1.0010398176 -0.0058461729824813 0)
(1.0012985106657 -0.0065296284054934 0)
(1.0015860325263 -0.0072145286483318 0)
(1.0019032112415 -0.0079009015382381 0)
(1.0022500094112 -0.0085869367311618 0)
(1.0026275842147 -0.0092720779742672 0)
(1.003035147195 -0.0099537108628352 0)
(1.0034746845973 -0.010632978898327 0)
(1.0039439818515 -0.011306048391925 0)
(1.0044470706059 -0.011977017619943 0)
(1.0049786568318 -0.012638005350498 0)
(1.0055473191215 -0.01329911868647 0)
(1.0061409229484 -0.013943085989122 0)
(1.0067780907795 -0.014594031081443 0)
(1.0074316783695 -0.015213518714433 0)
(1.0081423852355 -0.015857839937268 0)
(1.0088504112927 -0.016440097120253 0)
(1.009644605896 -0.01708974765422 0)
(1.0103943760928 -0.017609103740986 0)
(1.0112939783235 -0.018294137499992 0)
(1.0120591135203 -0.018695184607536 0)
(1.0131196346304 -0.019486615786862 0)
(1.000000806531 -0.00038560017977947 0)
(1.0000307967027 -0.0011498947812637 0)
(1.0000885017018 -0.0019181138493585 0)
(1.0001750435778 -0.0026868497939922 0)
(1.0002907666171 -0.0034541993342087 0)
(1.0004355814785 -0.0042193042643246 0)
(1.0006090628102 -0.0049813864355137 0)
(1.0008109913842 -0.0057410189113199 0)
(1.0010412122521 -0.0065000101223975 0)
(1.0013002029108 -0.0072608232435313 0)
(1.0015882315271 -0.0080244081554113 0)
(1.0019063707357 -0.0087909895517847 0)
(1.0022546611659 -0.0095585625512511 0)
(1.0026346078544 -0.010326573834346 0)
(1.0030453749051 -0.011092045488603 0)
(1.0034895018654 -0.011856432966938 0)
(1.0039644518274 -0.01261534011756 0)
(1.0044752690751 -0.013373699975615 0)
(1.0050157088503 -0.014122346829134 0)
(1.0055963547624 -0.014873250615399 0)
(1.006202690552 -0.015606190050656 0)
(1.0068575080667 -0.01634957890259 0)
(1.0075281052447 -0.01705833596085 0)
(1.008264080304 -0.017798629520031 0)
(1.0089931362376 -0.018468483849566 0)
(1.0098233028829 -0.019219900478118 0)
(1.0105964273559 -0.019820873485786 0)
(1.0115484884574 -0.020618697296833 0)
(1.0123348359425 -0.021085750035048 0)
(1.0134778938333 -0.022013094132353 0)
(1.0000008438145 -0.00042262481154325 0)
(1.0000305473059 -0.0012590116539376 0)
(1.0000876636916 -0.0020999443292248 0)
(1.0001733236708 -0.0029414588317635 0)
(1.0002878492315 -0.0037813427378096 0)
(1.0004311365963 -0.0046185818858264 0)
(1.000602726019 -0.005452302617583 0)
(1.0008024041346 -0.006283364688301 0)
(1.0010300322675 -0.0071142140707099 0)
(1.0012862220074 -0.0079480912346974 0)
(1.0015713524005 -0.0087864147973945 0)
(1.0018867622782 -0.0096296617533087 0)
(1.0022325955746 -0.010475656500808 0)
(1.0026107313427 -0.011323870990048 0)
(1.0030203166748 -0.012170978708177 0)
(1.0034644747911 -0.013018785468954 0)
(1.0039403843604 -0.013862351951264 0)
(1.0044541386314 -0.014707502252095 0)
(1.0049985895136 -0.015543785091017 0)
(1.0055863681815 -0.016385111013774 0)
(1.0062006331653 -0.017208257561829 0)
(1.0068683951364 -0.01804606776533 0)
(1.0075514591948 -0.018846657892192 0)
(1.0083083768209 -0.019686368448916 0)
(1.0090544321006 -0.020447738633145 0)
(1.0099168919443 -0.021305976791601 0)
(1.0107101394949 -0.021993747412362 0)
(1.0117119613669 -0.022911219638152 0)
(1.012517469625 -0.023450360440375 0)
(1.013742082171 -0.02452265245336 0)
(1.0000008744435 -0.00045710716841779 0)
(1.0000298740432 -0.0013602596555042 0)
(1.0000855982135 -0.0022686201285446 0)
(1.0001691751136 -0.0031776350423135 0)
(1.000280901013 -0.0040847660059517 0)
(1.0004206577302 -0.0049888314643339 0)
(1.0005879531874 -0.0058888653697745 0)
(1.000782581459 -0.0067860693340917 0)
(1.0010044257557 -0.0076836316528122 0)
(1.0012542402639 -0.0085856860640693 0)
(1.0015325322672 -0.0094942107664799 0)
(1.0018409229844 -0.010409990207483 0)
(1.0021796856155 -0.011330708356376 0)
(1.0025510905034 -0.012255884426439 0)
(1.0029543042223 -0.013181870111156 0)
(1.0033930494443 -0.014110854833021 0)
(1.0038642754094 -0.015037396737915 0)
(1.0043751322883 -0.015968250145 0)
(1.0049176560524 -0.016891718803513 0)
(1.0055065098159 -0.01782368749609 0)
(1.0061226723099 -0.018737965886891 0)
(1.0067972976918 -0.01967186046803 0)
(1.0074869551248 -0.020566704532091 0)
(1.0082589377752 -0.021509066862629 0)
(1.0090165933559 -0.02236596602316 0)
(1.0099059083303 -0.023335953224212 0)
(1.0107147601543 -0.02411613943685 0)
(1.0117616018541 -0.025159986369138 0)
(1.0125832378258 -0.025778258903821 0)
(1.0138859237257 -0.027004182675592 0)
(1.0000008976084 -0.00048874809023247 0)
(1.0000287378848 -0.0014527629225636 0)
(1.000082193461 -0.0024226866276668 0)
(1.0001623772823 -0.0033933459725389 0)
(1.000269554277 -0.0043618606666121 0)
(1.0004035914041 -0.0053268698347249 0)
(1.0005639661446 -0.0062873186836131 0)
(1.0007504799692 -0.0072448037922739 0)
(1.000963042468 -0.0082033572353493 0)
(1.0012025541935 -0.009168116157814 0)
(1.001469664504 -0.010141707874578 0)
(1.0017662852042 -0.011125277007844 0)
(1.0020928442825 -0.012116403894015 0)
(1.0024520107371 -0.013114675878537 0)
(1.0028430111598 -0.014116162991011 0)
(1.0032701670785 -0.015123464155268 0)
(1.0037302680224 -0.016130700181738 0)
(1.0042314994622 -0.017145573217968 0)
(1.0047652057936 -0.018155231825984 0)
(1.0053480075722 -0.019177514981035 0)
(1.005958933186 -0.020183399041146 0)
(1.0066330835759 -0.021214561903828 0)
(1.0073222314947 -0.022205784776059 0)
(1.0081019397133 -0.023253634449689 0)
(1.0088644953516 -0.024210019717857 0)
(1.0097735347468 -0.025296339869559 0)
(1.0105922078366 -0.026174875837176 0)
(1.0116773301451 -0.027351438013884 0)
(1.0125110513054 -0.028056800003134 0)
(1.0138858736437 -0.029444363331271 0)
(1.0000009113905 -0.00051728396391045 0)
(1.0000271165892 -0.0015357565047469 0)
(1.0000773869567 -0.0025608733316778 0)
(1.0001528045107 -0.0035868142946566 0)
(1.0002535979469 -0.0046103423749811 0)
(1.0003796174952 -0.0056299049289519 0)
(1.0005303113451 -0.006644361836703 0)
(1.0007054861393 -0.0076557538188947 0)
(1.0009050801539 -0.0086690522307055 0)
(1.0011301387329 -0.0096904990669826 0)
(1.001381463713 -0.01072345707142 0)
(1.0016612567624 -0.011769479325235 0)
(1.0019701224312 -0.012826085169195 0)
(1.0023111238441 -0.013892948095745 0)
(1.0026835905241 -0.014965910833379 0)
(1.003092424889 -0.016047998345281 0)
(1.0035343378021 -0.017132986050829 0)
(1.0040184983605 -0.018229516001323 0)
(1.0045357156586 -0.019323726397555 0)
(1.0051044362249 -0.02043532879407 0)
(1.0057020430629 -0.02153271546737 0)
(1.0063672711513 -0.022661699911731 0)
(1.0070477043325 -0.023750982870125 0)
(1.0078264633479 -0.024906573255623 0)
(1.0085860056587 -0.025966191355216 0)
(1.0095060421679 -0.027172870125997 0)
(1.0103275257775 -0.02815586992173 0)
(1.0114422694518 -0.029470848835482 0)
(1.0122829830083 -0.030272097870264 0)
(1.0137216363291 -0.031828312998199 0)
(1.0000009156205 -0.00054250136795299 0)
(1.0000250042991 -0.0016086299200261 0)
(1.0000711629653 -0.0026821660679631 0)
(1.0001404263778 -0.003756619245488 0)
(1.0002329794747 -0.0048283819552316 0)
(1.0003486530822 -0.0058956963081112 0)
(1.0004868663776 -0.0069573395067452 0)
(1.0006474261112 -0.0080158398129789 0)
(1.0008302988653 -0.0090771947218456 0)
(1.0010366672243 -0.010148840829076 0)
(1.0012674911435 -0.011234957311434 0)
(1.0015252521717 -0.012337548239176 0)
(1.001810749034 -0.01345411991497 0)
(1.0021274211572 -0.014584445637083 0)
(1.0024747423208 -0.015724208786008 0)
(1.0028581603227 -0.016876865525734 0)
(1.0032743959746 -0.018035965690245 0)
(1.0037335211 -0.019211054643029 0)
(1.0042259906822 -0.020387463586727 0)
(1.0047718927655 -0.021586627660198 0)
(1.0053473328893 -0.02277472825435 0)
(1.0059942637854 -0.024001322077239 0)
(1.0066568305732 -0.025189763389537 0)
(1.0074247858972 -0.026454591891643 0)
(1.0081723012631 -0.027620820897489 0)
(1.0090931443676 -0.028951114050568 0)
(1.009909247707 -0.030044719140485 0)
(1.0110431465041 -0.031502923947395 0)
(1.0118846694877 -0.032409593456359 0)
(1.0133766002665 -0.034140162756838 0)
(1.0000009089957 -0.00056424741755983 0)
(1.000022412408 -0.0016709562161789 0)
(1.0000635554268 -0.0027858560954192 0)
(1.0001253065289 -0.0039017658009391 0)
(1.0002078008288 -0.0050146944007185 0)
(1.000310845594 -0.0061226643008861 0)
(1.0004338298485 -0.007224371227947 0)
(1.0005765527896 -0.0083228671738882 0)
(1.0007390055678 -0.0094252516723988 0)
(1.0009224941682 -0.010540231454289 0)
(1.0011281367484 -0.011672875749354 0)
(1.0013586750743 -0.012825674721375 0)
(1.0016151139042 -0.013996173977508 0)
(1.0019012386665 -0.01518425515052 0)
(1.0022167050295 -0.016385522806714 0)
(1.0025674520165 -0.017603856038495 0)
(1.0029503016832 -0.018832725709443 0)
(1.0033761207583 -0.020082513359177 0)
(1.003835207981 -0.021338005903392 0)
(1.0043490613224 -0.022622142289944 0)
(1.0048929247323 -0.023899394638774 0)
(1.0055114627801 -0.02522250655232 0)
(1.0061462466626 -0.026510495101617 0)
(1.0068925572068 -0.027885144970291 0)
(1.007618070986 -0.029160837209224 0)
(1.0085282320437 -0.030617026243792 0)
(1.0093296563273 -0.031827236686316 0)
(1.0104705856513 -0.03343233325487 0)
(1.0113056072519 -0.034454555238915 0)
(1.0128381749021 -0.036363563335095 0)
(1.0000008921446 -0.00058243517550316 0)
(1.0000193663281 -0.0017225077934382 0)
(1.0000546383772 -0.0028715655504048 0)
(1.0001075921046 -0.0040217204136856 0)
(1.0001783038151 -0.005168586001486 0)
(1.0002665521942 -0.0063099490358624 0)
(1.0003716940147 -0.0074444229520964 0)
(1.000493510407 -0.0085756111472519 0)
(1.0006320102396 -0.0097117781731081 0)
(1.000788602964 -0.010862960483231 0)
(1.0009645588239 -0.012035181540997 0)
(1.0011628506334 -0.0132314441986 0)
(1.0013846940953 -0.014449388315022 0)
(1.0016341781697 -0.015689006616324 0)
(1.0019111724918 -0.016945916165501 0)
(1.002222036739 -0.018224396957013 0)
(1.0025637825123 -0.019518010989344 0)
(1.0029479387919 -0.020837877666856 0)
(1.0033648540829 -0.022168558499944 0)
(1.003837164706 -0.023534206202453 0)
(1.0043396996551 -0.024898211099198 0)
(1.0049192579275 -0.026315783490192 0)
(1.005515782478 -0.027702889515286 0)
(1.0062288387352 -0.029186893915425 0)
(1.0069215850899 -0.030574226456791 0)
(1.0078084840455 -0.032157432266553 0)
(1.0085849189836 -0.033489927399179 0)
(1.0097192794249 -0.0352441941359 0)
(1.0105393417543 -0.036392525113442 0)
(1.0120980042163 -0.038482134067928 0)
(1.0000008643409 -0.00059704506365764 0)
(1.0000159055471 -0.001763258563931 0)
(1.0000445256932 -0.002939252278161 0)
(1.0000875033208 -0.0041164182059806 0)
(1.0001448499462 -0.0052899629982849 0)
(1.0002163099347 -0.0064574212506339 0)
(1.0003012038651 -0.0076173210711859 0)
(1.0003992819997 -0.0087738360411562 0)
(1.0005105602527 -0.0099364440820134 0)
(1.0006365262332 -0.011116553853359 0)
(1.0007785898581 -0.012321195539288 0)
(1.0009399171816 -0.013553902250494 0)
(1.0011219317146 -0.014812462761286 0)
(1.0013289726783 -0.016096978449987 0)
(1.0015611478362 -0.017403176581893 0)
(1.001825152969 -0.018735704737568 0)
(1.0021182709481 -0.020088403154894 0)
(1.0024525393426 -0.021473004253173 0)
(1.0028185603585 -0.022874207943364 0)
(1.0032398056005 -0.024317029013683 0)
(1.0036911493343 -0.02576451431815 0)
(1.0042208919749 -0.027273469463238 0)
(1.0047683423919 -0.028758355324783 0)
(1.005436008785 -0.030350089886903 0)
(1.0060846235826 -0.031850424766094 0)
(1.0069348246399 -0.033560450105391 0)
(1.0076750902074 -0.035020410451957 0)
(1.0087880333837 -0.036924517558852 0)
(1.0095835448842 -0.038209735137435 0)
(1.011152065685 -0.040479904487941 0)
(1.0000008269931 -0.00060812288632796 0)
(1.0000120787163 -0.0017933770352986 0)
(1.0000333582256 -0.0029891955593866 0)
(1.0000653193546 -0.0041862432909969 0)
(1.0001078984141 -0.0053793096999916 0)
(1.0001608004356 -0.0065656584996103 0)
(1.0002233068948 -0.007743725858603 0)
(1.0002951225944 -0.0089182650073246 0)
(1.0003762561105 -0.010100000216782 0)
(1.0004682430817 -0.011301738758932 0)
(1.0005726139637 -0.012531557086254 0)
(1.0006926837029 -0.013793528941322 0)
(1.0008300713114 -0.015085642037212 0)
(1.0009893049015 -0.016408101116249 0)
(1.0011707433352 -0.017756838588773 0)
(1.0013813242993 -0.019136832021345 0)
(1.0016186707924 -0.020542388814904 0)
(1.0018951625491 -0.021985719937319 0)
(1.0022018470743 -0.023452046134555 0)
(1.0025627069272 -0.024966860909742 0)
(1.0029531184734 -0.026493673269573 0)
(1.0034222125742 -0.028089909327024 0)
(1.0039096742297 -0.029670264567556 0)
(1.0045195417385 -0.031366885819217 0)
(1.0051122765999 -0.032980635944727 0)
(1.0059117372401 -0.034815842778326 0)
(1.0066039613001 -0.036407770834547 0)
(1.0076796430688 -0.038460607966689 0)
(1.008439959711 -0.039893483793038 0)
(1.0100006358808 -0.042341643100985 0)
(1.0000007806149 -0.00061577149189057 0)
(1.0000079432731 -0.0018132097896191 0)
(1.0000213009698 -0.0030219737193553 0)
(1.0000413614252 -0.0042319943331754 0)
(1.0000679776948 -0.005437638298036 0)
(1.0001008111844 -0.006635882826002 0)
(1.0001390999327 -0.0078250632302672 0)
(1.0001824887484 -0.0090105108190297 0)
(1.0002309607407 -0.010204209614971 0)
(1.0002860659558 -0.011420374255712 0)
(1.0003494285283 -0.012668151806249 0)
(1.0004244645567 -0.013952163937638 0)
(1.0005129666295 -0.015270639439541 0)
(1.000619588487 -0.016623885907613 0)
(1.0007449366899 -0.018008119916546 0)
(1.0008960948717 -0.019428622221539 0)
(1.0010710702623 -0.020880328084418 0)
(1.0012824194081 -0.022375819410217 0)
(1.0015217954429 -0.023901179499453 0)
(1.0018133694262 -0.025482045033604 0)
(1.0021334466544 -0.027083148194577 0)
(1.0025313080493 -0.028761604139481 0)
(1.0029480160503 -0.030434087662894 0)
(1.0034876720818 -0.032231573558642 0)
(1.0040126477717 -0.033958058695508 0)
(1.0047469560616 -0.035915321437111 0)
(1.0053787892245 -0.037642849609111 0)
(1.0064006270844 -0.039841311631013 0)
(1.007114247453 -0.041432783675084 0)
(1.0086483294318 -0.044053066238141 0)
(1.0000007249495 -0.00062014799471123 0)
(1.0000035614194 -0.001823233187934 0)
(1.0000085294991 -0.0030383907687002 0)
(1.0000159696576 -0.0042548141441475 0)
(1.0000256510394 -0.0054664258925455 0)
(1.0000371857165 -0.0066698967376145 0)
(1.0000497639727 -0.0078634505403584 0)
(1.0000629564493 -0.0090529878841822 0)
(1.0000767012131 -0.010251750624252 0)
(1.0000925257645 -0.011475352382905 0)
(1.0001121113244 -0.012734017703384 0)
(1.0001389242289 -0.014032919196674 0)
(1.0001748981379 -0.015370555984941 0)
(1.0002247546098 -0.01674734828637 0)
(1.0002893246244 -0.018159848124299 0)
(1.0003757534522 -0.019613643977308 0)
(1.0004824352325 -0.021104393397641 0)
(1.0006219647843 -0.022645026981606 0)
(1.0007866904031 -0.024222688561717 0)
(1.0010006996396 -0.025863024367206 0)
(1.0012415570379 -0.027532462867512 0)
(1.0015580779782 -0.029287277974024 0)
(1.0018936281867 -0.031047373513573 0)
(1.0023509179106 -0.032940766063972 0)
(1.0027964405579 -0.034777961439283 0)
(1.0034510133216 -0.036852908707501 0)
(1.0040100769919 -0.038718314177246 0)
(1.0049601972629 -0.041057400626804 0)
(1.0056171535435 -0.042818109366216 0)
(1.0070993191868 -0.045600462198153 0)
(1.0000006621421 -0.0006214341638183 0)
(0.99999897361119 -0.0018240546882911 0)
(0.99999518494588 -0.0030394615674533 0)
(0.99998945762777 -0.0042561096684177 0)
(0.99998146076569 -0.0054674757886307 0)
(0.99997075167359 -0.0066699128715362 0)
(0.99995647553596 -0.0078615178845544 0)
(0.99993811614005 -0.0090487353685315 0)
(0.99991554597443 -0.010246047563498 0)
(0.99989022665586 -0.011470439684316 0)
(0.99986385449426 -0.012733208020414 0)
(0.99983988803232 -0.014040068209285 0)
(0.9998203666282 -0.01538980898473 0)
(0.99981002032032 -0.016782972864101 0)
(0.99980987062015 -0.018216473675836 0)
(0.99982704653788 -0.01969623770759 0)
(0.99986029586247 -0.021218660053871 0)
(0.9999221480847 -0.022797112510385 0)
(1.0000056429252 -0.024419768060503 0)
(1.0001346165555 -0.02611251416027 0)
(1.0002880185582 -0.027843329977088 0)
(1.000513807159 -0.029668081906055 0)
(1.000758247894 -0.031509703205107 0)
(1.0011215390399 -0.033493622083293 0)
(1.001476318742 -0.035437322525302 0)
(1.0020367284698 -0.037625529424835 0)
(1.0025113190996 -0.039628231031876 0)
(1.0033703350654 -0.04210188543916 0)
(1.003960828178 -0.044040150438466 0)
(1.0053663988801 -0.046971388870128 0)
(1.0000005891343 -0.00061985750782662 0)
(0.99999422906786 -0.0018163306111986 0)
(0.99998141316999 -0.0030262623317607 0)
(0.9999621253002 -0.004237380625532 0)
(0.99993591845154 -0.0054427226210643 0)
(0.99990228908948 -0.0066383181568846 0)
(0.99986035406152 -0.0078221058369071 0)
(0.99980949023889 -0.0090010252469266 0)
(0.99974948608232 -0.010190775004383 0)
(0.99968168297467 -0.011409684225379 0)
(0.99960776109982 -0.012670131854773 0)
(0.99953109239657 -0.013978347906213 0)
(0.99945381167338 -0.015333428162785 0)
(0.99938055857896 -0.016736006703752 0)
(0.99931255967135 -0.018183396785407 0)
(0.9992567786064 -0.019681848042163 0)
(0.99921235922675 -0.021228512140976 0)
(0.9991915540731 -0.022837286435184 0)
(0.99918817981177 -0.02449723513856 0)
(0.99922555892588 -0.026234950064892 0)
(0.99928414763473 -0.028019203987715 0)
(0.99941074523451 -0.029907044971488 0)
(0.99955468726447 -0.031821967865703 0)
(0.99981327073356 -0.033891164485086 0)
(1.0000659551148 -0.035932964235901 0)
(1.0005192127933 -0.038232395092801 0)
(1.0008972376038 -0.040364578543059 0)
(1.0016492257077 -0.042973125676704 0)
(1.0021599530549 -0.045082999918982 0)
(1.0034684334768 -0.048153230135205 0)
(1.0000005042366 -0.0006157373305075 0)
(0.99998943927949 -0.0018009958689066 0)
(0.99996746689742 -0.0030001980827422 0)
(0.9999343807052 -0.004200384136802 0)
(0.99988961153596 -0.0053942649913906 0)
(0.99983263220212 -0.0065776067006083 0)
(0.99976257876341 -0.0077481207381429 0)
(0.99967867230795 -0.0089131459796596 0)
(0.9995805635819 -0.010089496596591 0)
(0.99946938255057 -0.011296785320427 0)
(0.99934680532606 -0.012548555365117 0)
(0.99921603971668 -0.013851562664384 0)
(0.99907937940344 -0.015205290891016 0)
(0.99894117935994 -0.016610362851463 0)
(0.99880302464373 -0.018064594035364 0)
(0.99867133714119 -0.019574376984218 0)
(0.9985460366881 -0.021137842288747 0)
(0.99843838161766 -0.022769181798556 0)
(0.99834378266075 -0.024458635942514 0)
(0.99828375763819 -0.026233440342925 0)
(0.99824179423119 -0.028062936912326 0)
(0.99826138242245 -0.030006583592084 0)
(0.99829732311655 -0.031985470923103 0)
(0.99844084442007 -0.034135160319249 0)
(0.99858157373249 -0.036262269530632 0)
(0.99891433287523 -0.038676026543377 0)
(0.99918511764269 -0.04091733269314 0)
(0.9998160921774 -0.043684062358009 0)
(1.0002425533408 -0.045929115204003 0)
(1.0014277209728 -0.04917448271871 0)
(1.0000004024491 -0.00060960047690539 0)
(0.99998483724572 -0.0017796748603606 0)
(0.99995390223864 -0.002963757648021 0)
(0.99990700601178 -0.0041482274880001 0)
(0.9998434184737 -0.0053256083029221 0)
(0.99976278468874 -0.0064916322004181 0)
(0.99966441100673 -0.0076435972989845 0)
(0.9995473387634 -0.0087893668785541 0)
(0.99941100236578 -0.0099467234184347 0)
(0.99925608990371 -0.011136344104969 0)
(0.999084206641 -0.012372903018946 0)
(0.99889834773018 -0.013663720927418 0)
(0.99870114185397 -0.015008897602153 0)
(0.99849647294156 -0.016409020192063 0)
(0.99828656004774 -0.017862654203671 0)
(0.99807669015263 -0.019376081283171 0)
(0.99786829326133 -0.020948976858747 0)
(0.99767025736887 -0.022595167149972 0)
(0.99748151211981 -0.024307348009808 0)
(0.99731863650577 -0.026111943180685 0)
(0.9971727345004 -0.027981291660602 0)
(0.99707702980057 -0.029974897356035 0)
(0.997001754316 -0.032013988166216 0)
(0.99701744589109 -0.034242650519186 0)
(0.99704383618624 -0.036449132210604 0)
(0.9972350840995 -0.038990600525777 0)
(0.99739736603222 -0.041315104742364 0)
(0.99787550623628 -0.044312370880449 0)
(0.99824211972049 -0.046594840746133 0)
(0.99926812373136 -0.050283132326732 0)
(1.0000002474879 -0.00060257995619835 0)
(0.99998016640707 -0.0017559906014072 0)
(0.99994063966673 -0.0029239271335543 0)
(0.99988020108795 -0.004091881793939 0)
(0.99979775269131 -0.0052517711412985 0)
(0.99969344724004 -0.0063995681506146 0)
(0.99956679158378 -0.0075314050431859 0)
(0.9994165096382 -0.0086558978098891 0)
(0.99924210679408 -0.0097921493972073 0)
(0.99904374469677 -0.010962277070397 0)
(0.99882270159592 -0.012182187448398 0)
(0.99858156190388 -0.013459579778222 0)
(0.99832327565478 -0.014795189808083 0)
(0.99805128840851 -0.016189440233359 0)
(0.99776853639556 -0.017641944062109 0)
(0.99747893265474 -0.019158819941664 0)
(0.99718570370374 -0.02074227825831 0)