# Force coefficients  
# dragDir             : (1.00000000000000e+00 0.00000000000000e+00 0.00000000000000e+00)
# sideDir             : (0.00000000000000e+00 0.00000000000000e+00 -1.00000000000000e+00)
# liftDir             : (0.00000000000000e+00 1.00000000000000e+00 0.00000000000000e+00)
# rollAxis            : (1.00000000000000e+00 0.00000000000000e+00 0.00000000000000e+00)
# pitchAxis           : (0.00000000000000e+00 0.00000000000000e+00 -1.00000000000000e+00)
# yawAxis             : (0.00000000000000e+00 1.00000000000000e+00 0.00000000000000e+00)
# magUInf             : 1.00000000000000e+00
# lRef                : 1.00000000000000e+00
# Aref                : 1.00000000000000e+00
# CofR                : (0.00000000000000e+00 0.00000000000000e+00 0.00000000000000e+00)
#
# Time                	Cd                    	Cs                    	Cl                    	CmRoll                	CmPitch               	CmYaw                 	Cd(f)                 	Cd(r)                 	Cs(f)                 	Cs(r)                 	Cl(f)                 	Cl(r)                 
3.40526315789         	2.42063336758914e+00	2.47115423633834e-20	-4.02831619615016e-01	-1.81999093211633e-19	1.93303188598095e+01	1.34839175585200e-19	1.21031668379457e+00	1.21031668379457e+00	1.47194946766892e-19	-1.22483404403509e-19	1.91289030500020e+01	-1.95317346696170e+01
3.41052631579         	2.42723268160540e+00	2.47741863016359e-20	-3.97471794524708e-01	-1.82464371231150e-19	1.93552290523802e+01	1.35186894464830e-19	1.21361634080270e+00	1.21361634080270e+00	1.47573987615648e-19	-1.22799801314013e-19	1.91564931551178e+01	-1.95539649496425e+01
3.41578947368         	2.43387824909086e+00	2.48359815301342e-20	-3.92146936754064e-01	-1.82923911658937e-19	1.93806436673561e+01	1.35530666004236e-19	1.21693912454543e+00	1.21693912454543e+00	1.47948656769303e-19	-1.23112675239169e-19	1.91845701989791e+01	-1.95767171357332e+01
3.42105263158         	2.44064935307193e+00	2.48990273288167e-20	-3.86676095893850e-01	-1.83391765876781e-19	1.94062527832486e+01	1.35880026594227e-19	1.22032467653596e+00	1.22032467653596e+00	1.48329540258636e-19	-1.23430512929819e-19	1.92129147353016e+01	-1.95995908311955e+01
3.42631578947         	2.44734662291719e+00	2.49613640618549e-20	-3.81386304163303e-01	-1.83854250557514e-19	1.94321965005793e+01	1.36225916025756e-19	1.22367331145860e+00	1.22367331145860e+00	1.48706598056684e-19	-1.23745233994829e-19	1.92415033484976e+01	-1.96228896526609e+01
3.43157894737         	2.45420771534828e+00	2.50241269175801e-20	-3.75855528202208e-01	-1.84318949064706e-19	1.94581472707501e+01	1.36573545285772e-19	1.22710385767414e+00	1.22710385767414e+00	1.49085608744562e-19	-1.24061481826982e-19	1.92702195066490e+01	-1.96460750348512e+01
3.43684210526         	2.46081825245508e+00	2.50821180543639e-20	-3.70409779324536e-01	-1.84749650185891e-19	1.94826275125853e+01	1.36896925001687e-19	1.23040912622754e+00	1.23040912622754e+00	1.49437984028869e-19	-1.24355865974505e-19	1.92974226229230e+01	-1.96678324022476e+01
3.44210526316         	2.46767401920004e+00	2.51436799720594e-20	-3.64934973554607e-01	-1.85205431708023e-19	1.95087853964701e+01	1.37238015093462e-19	1.23383700960002e+00	1.23383700960002e+00	1.49809855079492e-19	-1.24666175107433e-19	1.93263179096928e+01	-1.96912528832474e+01
3.44736842105         	2.47451186524753e+00	2.52030805965363e-20	-3.59605259444014e-01	-1.85645599241983e-19	1.95355182725804e+01	1.37568165802329e-19	1.23725593262376e+00	1.23725593262376e+00	1.50169706100597e-19	-1.24966625504061e-19	1.93557156428584e+01	-1.97153209023024e+01
3.45263157895         	2.48142944226345e+00	2.52647886860518e-20	-3.54078528457461e-01	-1.86101638021760e-19	1.95618481975390e+01	1.37909169961745e-19	1.24071472113172e+00	1.24071472113172e+00	1.50541564304771e-19	-1.25276775618719e-19	1.93848089333103e+01	-1.97388874617677e+01
3.45789473684         	2.48823302512649e+00	2.53207114489209e-20	-3.48710355431595e-01	-1.86515469200291e-19	1.95881003290764e+01	1.38221369183517e-19	1.24411651256324e+00	1.24411651256324e+00	1.50881724907977e-19	-1.25561013459056e-19	1.94137451513606e+01	-1.97624555067922e+01
3.46315789474         	2.49529128866337e+00	2.53808454402440e-20	-3.43225509277776e-01	-1.86959044358833e-19	1.96156637579703e+01	1.38553888161830e-19	1.24764564433169e+00	1.24764564433169e+00	1.51244310881952e-19	-1.25863465441708e-19	1.94440510033314e+01	-1.97872765126092e+01
3.46842105263         	2.50234217742175e+00	2.54373508876945e-20	-3.37784341394240e-01	-1.87377051927740e-19	1.96433750492345e+01	1.38869607781110e-19	1.25117108871087e+00	1.25117108871087e+00	1.51588283224957e-19	-1.26150932337262e-19	1.94744828785374e+01	-1.98122672199316e+01
3.47368421053         	2.50930710129928e+00	2.54961568289250e-20	-3.32199290805974e-01	-1.87810658500503e-19	1.96697071427301e+01	1.39194496244518e-19	1.25465355064964e+00	1.25465355064964e+00	1.51942574658981e-19	-1.26446417830056e-19	1.95036074973271e+01	-1.98358067881331e+01
3.47894736842         	2.51637088953936e+00	2.55457855963540e-20	-3.26749688930193e-01	-1.88178436356592e-19	1.96974431117184e+01	1.39476854885069e-19	1.25818544476968e+00	1.25818544476968e+00	1.52249747683246e-19	-1.26703962086892e-19	1.95340682672533e+01	-1.98608179561835e+01
3.48421052632         	2.52350963529509e+00	2.56067718254930e-20	-3.21287500758260e-01	-1.88626877370673e-19	1.97256636441446e+01	1.39812240890918e-19	1.26175481764755e+00	1.26175481764755e+00	1.52615626803665e-19	-1.27008854978172e-19	1.95650198937655e+01	-1.98863073945238e+01
3.48947368421         	2.53062416302222e+00	2.56569985692125e-20	-3.15791038088928e-01	-1.88997132761914e-19	1.97535166741575e+01	1.40095715481812e-19	1.26531208151111e+00	1.26531208151111e+00	1.52924214766418e-19	-1.27267216197205e-19	1.95956211551131e+01	-1.99114121932020e+01
3.49473684211         	2.53793121882341e+00	2.57173136678425e-20	-3.10377094255277e-01	-1.89440851258322e-19	1.97832119241716e+01	1.40427748726965e-19	1.26896560941171e+00	1.26896560941171e+00	1.53286405560887e-19	-1.27569091893044e-19	1.96280233770440e+01	-1.99384004712992e+01
3.5                   	2.54507294016790e+00	2.57679236822145e-20	-3.04927176476411e-01	-1.89814379766132e-19	1.98114731573297e+01	1.40713367904035e-19	1.27253647008395e+00	1.27253647008395e+00	1.53597329745142e-19	-1.27829406062927e-19	1.96590095690915e+01	-1.99639367455679e+01
3.50526315789         	2.55229446994442e+00	2.58270751523922e-20	-2.99404926481018e-01	-1.90248714405896e-19	1.98399572934876e+01	1.41038054074292e-19	1.27614723497221e+00	1.27614723497221e+00	1.53951591650488e-19	-1.28124516498096e-19	1.96902548302470e+01	-1.99896597567281e+01
3.51052631579         	2.55958792364260e+00	2.58740455035097e-20	-2.93880554976306e-01	-1.90595028015420e-19	1.98689564242694e+01	1.41305744606065e-19	1.27979396182130e+00	1.27979396182130e+00	1.54242767357819e-19	-1.28368721854310e-19	1.97220161467813e+01	-2.00158967017576e+01
