/*--------------------------------*- C++ -*----------------------------------*\
| =========                 |                                                 |
| \\      /  F ield         | OpenFOAM: The Open Source CFD Toolbox           |
|  \\    /   O peration     | Version:  2112                                  |
|   \\  /    A nd           | Website:  www.openfoam.com                      |
|    \\/     M anipulation  |                                                 |
\*---------------------------------------------------------------------------*/
FoamFile
{
    version     2.0;
    format      ascii;
    arch        "LSB;label=32;scalar=64";
    class       volVectorField;
    location    "15.3";
    object      U;
}
// * * * * * * * * * * * * * * * * * * * * * * * * * * * * * * * * * * * * * //

dimensions      [0 1 -1 0 0 0 0];

internalField   nonuniform List<vector> 
22000
(
(1.0000010404511 -2.6093658070913e-05 0)
(1.000027002218 -7.7996723407576e-05 0)
(1.0000767813674 -0.00012952250635794 0)
(1.0001513509607 -0.00018084967842008 0)
(1.0002511067034 -0.00023205954881123 0)
(1.0003760265865 -0.00028313308139935 0)
(1.0005258778268 -0.00033401319778621 0)
(1.0007004153922 -0.00038465662189472 0)
(1.0008994554311 -0.00043502512340805 0)
(1.0011228713044 -0.00048509781046093 0)
(1.0013705353174 -0.00053482454481181 0)
(1.0016423141001 -0.00058418811798732 0)
(1.0019380244993 -0.00063313395956144 0)
(1.0022574983506 -0.00068170729154658 0)
(1.0026005210144 -0.00072984172140575 0)
(1.0029669481999 -0.00077763510699801 0)
(1.0033565264208 -0.00082486433051669 0)
(1.0037691053473 -0.00087167952789766 0)
(1.0042042659908 -0.00091754698878341 0)
(1.0046618095495 -0.00096290216826487 0)
(1.0051410298087 -0.0010066964022062 0)
(1.0056417777689 -0.0010501875185835 0)
(1.0061629571508 -0.0010911988991572 0)
(1.0067047315375 -0.0011328544010815 0)
(1.0072653816704 -0.0011702590205419 0)
(1.0078458242833 -0.001210726199506 0)
(1.0084431477644 -0.0012429754839767 0)
(1.009059815484 -0.0012839502288307 0)
(1.0096905634379 -0.0013076276066476 0)
(1.0103410122211 -0.0013532058270924 0)
(1.0000004866295 -7.6630973752027e-05 0)
(1.0000262272978 -0.0002291745299272 0)
(1.0000758439201 -0.00038076761694658 0)
(1.0001502750633 -0.00053191999872829 0)
(1.0002499963583 -0.00068282927317898 0)
(1.0003750687349 -0.00083340954140421 0)
(1.000525306923 -0.00098348488739543 0)
(1.00070049802 -0.0011329329388416 0)
(1.0009004736883 -0.0012816489519445 0)
(1.0011251395303 -0.0014295755583739 0)
(1.0013743826214 -0.0015765663749955 0)
(1.0016481207906 -0.0017225693029202 0)
(1.0019461758981 -0.0018674248323249 0)
(1.0022684578405 -0.002011264836058 0)
(1.0026147227989 -0.0021538975954127 0)
(1.0029849545283 -0.0022956049414075 0)
(1.00337879034 -0.0024357355400983 0)
(1.0037963170615 -0.0025747131789856 0)
(1.0042368360384 -0.0027109840134719 0)
(1.0047006325397 -0.0028457895144368 0)
(1.0051863545673 -0.0029760977667021 0)
(1.0056948807824 -0.0031055146590462 0)
(1.0062236700584 -0.0032277844984462 0)
(1.0067750932391 -0.0033518548431202 0)
(1.0073442543963 -0.0034637143362597 0)
(1.0079368266338 -0.0035842513108794 0)
(1.008543004512 -0.0036812914517065 0)
(1.0091755236001 -0.0038030667905894 0)
(1.0098142915909 -0.0038756452145797 0)
(1.0104871944715 -0.0040101780267421 0)
(1.0000005189239 -0.000124607718133 0)
(1.0000268550814 -0.00037264792584593 0)
(1.0000774737117 -0.00061932173788378 0)
(1.0001532498026 -0.00086553468804331 0)
(1.0002546407969 -0.0011115543437527 0)
(1.0003817320485 -0.001357181363503 0)
(1.0005343724838 -0.0016021155322948 0)
(1.000712398341 -0.0018461791209713 0)
(1.0009156774234 -0.0020892288092732 0)
(1.001144176888 -0.0023311943226285 0)
(1.0013978162183 -0.0025718475638078 0)
(1.0016766010255 -0.0028111155537154 0)
(1.0019803694237 -0.003048735937794 0)
(1.0023091613306 -0.0032849305746167 0)
(1.0026626926714 -0.0035193645806905 0)
(1.0030411533792 -0.0037525062714177 0)
(1.0034440078201 -0.0039832521241398 0)
(1.0038717264168 -0.0042123363455074 0)
(1.0043231605158 -0.0044371569762666 0)
(1.0047993948462 -0.0046598530110285 0)
(1.0052980189011 -0.004875326590123 0)
(1.0058216362025 -0.0050897019906241 0)
(1.0063652756544 -0.0052924109912735 0)
(1.0069350748573 -0.0054985763286767 0)
(1.0075206507907 -0.0056845202456748 0)
(1.0081359657622 -0.0058855062179184 0)
(1.0087589786109 -0.0060472296597189 0)
(1.009420794962 -0.0062510499892282 0)
(1.0100742338609 -0.0063723333593149 0)
(1.0107882682248 -0.0065983663770002 0)
(1.0000005432342 -0.00017080300130226 0)
(1.0000274002118 -0.00051048552450171 0)
(1.0000789394538 -0.00084835001565515 0)
(1.0001560689857 -0.0011858708321175 0)
(1.0002592770815 -0.0015233810787474 0)
(1.0003886769066 -0.0018605336797837 0)
(1.0005441392928 -0.0021969093110366 0)
(1.0007255518954 -0.0025323147715069 0)
(1.0009328286115 -0.0028666122954068 0)
(1.0011660257838 -0.0031997590447056 0)
(1.0014251123665 -0.0035314721918695 0)
(1.0017102218331 -0.0038616857464451 0)
(1.0020212188614 -0.0041900391134563 0)
(1.0023583314222 -0.0045168517348069 0)
(1.0027212224676 -0.0048416126043511 0)
(1.0031103780185 -0.0051649825886264 0)
(1.0035250219159 -0.0054853600113543 0)
(1.0039661720453 -0.0058038558231893 0)
(1.0044320487795 -0.006116762730175 0)
(1.0049248736514 -0.0064272795291355 0)
(1.0054407483978 -0.0067280842725533 0)
(1.0059847223345 -0.0070281210986908 0)
(1.0065484042204 -0.0073120838830847 0)
(1.007143258225 -0.007601887771923 0)
(1.0077511774029 -0.0078632119944791 0)
(1.008397823529 -0.0081470790560981 0)
(1.009043950085 -0.0083749051823502 0)
(1.0097465535076 -0.0086642998666722 0)
(1.0104204180864 -0.0088351787233989 0)
(1.0111923040851 -0.0091579334681251 0)
(1.000000570918 -0.00021524409531498 0)
(1.0000279023737 -0.00064277805123463 0)
(1.0000802583304 -0.0010680392358421 0)
(1.0001586039518 -0.0014932507781766 0)
(1.0002634864033 -0.0019187956281253 0)
(1.0003950646401 -0.0023441390572592 0)
(1.000553238167 -0.0027687540213254 0)
(1.0007379582491 -0.0031924847981557 0)
(1.0009491975308 -0.0036152554829451 0)
(1.0011871294778 -0.0040371011804669 0)
(1.0014517914465 -0.004457716895897 0)
(1.001743486483 -0.0048770781785209 0)
(1.0020621195552 -0.00529473276376 0)
(1.0024081655427 -0.0057111118975646 0)
(1.0027812275848 -0.0061254914660879 0)
(1.0031821780274 -0.0065387388927936 0)
(1.0036099449188 -0.0069486957579843 0)
(1.0040662539509 -0.0073569347186344 0)
(1.004548536667 -0.0077585602989763 0)
(1.0050604714593 -0.0081580374279396 0)
(1.0055962889124 -0.0085456033581976 0)
(1.0061641534121 -0.0089334178405998 0)
(1.0067513635166 -0.0093008744158745 0)
(1.0073761385078 -0.0096775020266486 0)
(1.0080106368915 -0.010017053135823 0)
(1.0086953057575 -0.010388146948796 0)
(1.009369233041 -0.010685098953377 0)
(1.0101220369822 -0.011065900787315 0)
(1.0108206630973 -0.011288805499764 0)
(1.0116644849915 -0.011716494612918 0)
(1.0000006005589 -0.00025785903090135 0)
(1.0000282881636 -0.00076927863290407 0)
(1.0000812124679 -0.0012779925215412 0)
(1.0001604031053 -0.0017871802155197 0)
(1.0002664809676 -0.002297249337797 0)
(1.0003996664753 -0.002807425237981 0)
(1.0005598999439 -0.0033170833085441 0)
(1.0007472143841 -0.003826165699635 0)
(1.00096165789 -0.0043347232334894 0)
(1.0012035503724 -0.004842927177335 0)
(1.0014730182858 -0.0053504876123597 0)
(1.0017705765543 -0.0058574616967389 0)
(1.002096187948 -0.0063633135775889 0)
(1.0024506337271 -0.0068686046090134 0)
(1.0028334570512 -0.0073723567358448 0)
(1.0032460045847 -0.0078756632885842 0)
(1.0036868651789 -0.0083757429466873 0)
(1.0041586238175 -0.0088747311642177 0)
(1.0046577902075 -0.0093664484441508 0)
(1.0051897952167 -0.0098568674516538 0)
(1.005746668426 -0.010333533438795 0)
(1.0063402949295 -0.010812284238267 0)
(1.0069528900439 -0.01126656282162 0)
(1.0076106971945 -0.0117344680631 0)
(1.0082743904248 -0.012156343209593 0)
(1.0090019069153 -0.012620531504638 0)
(1.0097068015086 -0.012990993761917 0)
(1.0105171576045 -0.013470861552819 0)
(1.0112436484427 -0.013749573203826 0)
(1.0121710512825 -0.014292620458322 0)
(1.0000006298145 -0.00029848317929867 0)
(1.0000284601128 -0.00088946310300547 0)
(1.0000815236823 -0.0014773334819596 0)
(1.000160924787 -0.0020664602116698 0)
(1.0002673723392 -0.0026572472356735 0)
(1.0004011611441 -0.0032486206274275 0)
(1.0005622827777 -0.0038398677806574 0)
(1.0007508697674 -0.0044310946822776 0)
(1.0009670633325 -0.0050225508801823 0)
(1.0012113593263 -0.0056146092527617 0)
(1.0014839953042 -0.0062070377344261 0)
(1.0017857397826 -0.0068000212696173 0)
(1.0021166335814 -0.0073929519764027 0)
(1.0024778222938 -0.0079865446657958 0)
(1.0028687950657 -0.0085795267050254 0)
(1.0032914566044 -0.0091732427575303 0)
(1.0037440265592 -0.0097642211946503 0)
(1.0042300890924 -0.010355274624088 0)
(1.0047451279592 -0.010938840427427 0)
(1.0052965914948 -0.011522664934491 0)
(1.0058740408252 -0.012091335243345 0)
(1.0064936104034 -0.012664869414033 0)
(1.0071317958582 -0.01321006589786 0)
(1.0078239492071 -0.013774620416206 0)
(1.0085178155259 -0.014283885626187 0)
(1.0092910924028 -0.014848195564235 0)
(1.0100286246799 -0.015297697240994 0)
(1.0109018017437 -0.015885700825905 0)
(1.0116581556734 -0.01622526565322 0)
(1.0126783597734 -0.016895773096649 0)
(1.0000006570622 -0.00033687677780645 0)
(1.0000283310062 -0.0010025920375766 0)
(1.0000809327326 -0.0016648214676168 0)
(1.0001596570472 -0.0023293593033171 0)
(1.0002653195412 -0.0029965781831199 0)
(1.0003983023424 -0.0036650453854734 0)
(1.0005586566996 -0.0043339730037041 0)
(1.0007466292084 -0.0050037024325588 0)
(1.0009624696952 -0.0056747597032237 0)
(1.0012068768983 -0.0063477900589202 0)
(1.0014802213259 -0.0070226666243483 0)
(1.0017835647988 -0.007699753388021 0)
(1.0021170488247 -0.008378386155473 0)
(1.0024822382327 -0.0090594612818198 0)
(1.002878580447 -0.0097413738605161 0)
(1.0033086151572 -0.010425750698902 0)
(1.0037701775715 -0.011108366262099 0)
(1.0042679749918 -0.011792834042525 0)
(1.0047963941942 -0.01247011497309 0)
(1.0053651275078 -0.013150008121358 0)
(1.0059610726872 -0.013813880598328 0)
(1.0066050498964 -0.014486446348381 0)
(1.0072673586424 -0.015127165133663 0)
(1.007993325972 -0.015794367356069 0)
(1.0087166779897 -0.016396832007939 0)
(1.0095366410908 -0.01706915306825 0)
(1.0103069611257 -0.017604216716772 0)
(1.0112460286156 -0.018310520352626 0)
(1.0120331265115 -0.01871725167453 0)
(1.0131527296024 -0.019528618666384 0)
(1.0000006803884 -0.00037275135950406 0)
(1.0000278273276 -0.0011077910068077 0)
(1.0000792334843 -0.0018389951965636 0)
(1.0001561892841 -0.0025738308165361 0)
(1.0002596298764 -0.0033126113775498 0)
(1.0003900363384 -0.0040534871701682 0)
(1.0005475289921 -0.0047956108985373 0)
(1.0007324836114 -0.0055396349690184 0)
(1.0009452750425 -0.0062864440250025 0)
(1.0011868300855 -0.0070370309084297 0)
(1.0014576725734 -0.0077914257498579 0)
(1.0017591921188 -0.0085502264358321 0)
(1.0020916536177 -0.0093127321967311 0)
(1.0024570897349 -0.010080052538833 0)
(1.0028549241218 -0.010850218159265 0)
(1.0032883982176 -0.011625173128642 0)
(1.0037549635218 -0.012399883869179 0)
(1.0042605530448 -0.013178893203292 0)
(1.0047984228655 -0.013951608297355 0)
(1.0053806873497 -0.014730160183 0)
(1.0059914693101 -0.015492460617902 0)
(1.0066565995222 -0.016268418892083 0)
(1.0073398884063 -0.017009511640352 0)
(1.0080972506257 -0.017785685175255 0)
(1.0088477076861 -0.018487670849406 0)
(1.009713206336 -0.019276438937383 0)
(1.0105148962798 -0.019904423378524 0)
(1.0115205721211 -0.020739934267712 0)
(1.012338127496 -0.021221402483305 0)
(1.0135608751391 -0.022187863953345 0)
(1.0000006985142 -0.00040579628721347 0)
(1.0000268903301 -0.0012041268802225 0)
(1.0000762593148 -0.0019983005547156 0)
(1.0001501904322 -0.0027976977821663 0)
(1.000249746459 -0.0036025432642982 0)
(1.0003755167887 -0.004410512355151 0)
(1.0005276988862 -0.0052207155847536 0)
(1.0007068089488 -0.0060341931085496 0)
(1.000913358886 -0.0068522720177972 0)
(1.001148523789 -0.0076763696225935 0)
(1.0014130017968 -0.0085067283780416 0)
(1.00170854158 -0.0093442382460955 0)
(1.0020355542262 -0.010188187299041 0)
(1.002396579089 -0.011039932257589 0)
(1.0027910379162 -0.011897115199014 0)
(1.003222926057 -0.012762034913081 0)
(1.0036893285214 -0.013628810528348 0)
(1.0041974793638 -0.014503041841966 0)
(1.0047395112891 -0.015372531653426 0)
(1.0053300801878 -0.016252007821485 0)
(1.0059505148143 -0.017115741583757 0)
(1.0066318517686 -0.017999288183538 0)
(1.0073313243986 -0.018845599634548 0)
(1.0081157570128 -0.019737090042931 0)
(1.0088892316501 -0.020545194765231 0)
(1.0097969629875 -0.021459059287177 0)
(1.0106269914945 -0.022187984064733 0)
(1.0116974976679 -0.023163965820071 0)
(1.0125439959265 -0.023728955302137 0)
(1.0138705633303 -0.024865072548064 0)
(1.0000007102527 -0.00043570936039427 0)
(1.0000254770588 -0.0012907005090312 0)
(1.0000718886541 -0.002141240665006 0)
(1.0001414186065 -0.0029988550123316 0)
(1.0002352610652 -0.0038636486417076 0)
(1.0003541192659 -0.0047327655076531 0)
(1.0004982737641 -0.0056052921091512 0)
(1.0006683894656 -0.006482731843298 0)
(1.0008651253046 -0.0073669374187581 0)
(1.0010899183893 -0.0082598257595352 0)
(1.0013436558383 -0.0091619086572771 0)
(1.0016284664194 -0.010074426431723 0)
(1.0019449308627 -0.010996687442268 0)
(1.002296124925 -0.011930331499368 0)
(1.0026814942779 -0.01287259925764 0)
(1.0031058213392 -0.013826181595572 0)
(1.0035658574744 -0.014784330887503 0)
(1.0040701796616 -0.015753824348649 0)
(1.0046098480125 -0.016720846958035 0)
(1.0052021112199 -0.017702958074803 0)
(1.0058255848387 -0.018670678341884 0)
(1.0065165604638 -0.019665575152514 0)
(1.0072258270505 -0.020621693209318 0)
(1.0080311233951 -0.021634560364333 0)
(1.0088218415296 -0.022555413688711 0)
(1.0097663148892 -0.023602885992326 0)
(1.0106200128433 -0.024441233424509 0)
(1.0117509707665 -0.025568888164579 0)
(1.012623600663 -0.026227319891588 0)
(1.014051405858 -0.027547431692212 0)
(1.0000007146867 -0.00046222096952085 0)
(1.0000235614062 -0.0013667193368498 0)
(1.0000660490111 -0.0022664975776681 0)
(1.0001297298943 -0.0031754403237323 0)
(1.0002159292619 -0.0040935013781273 0)
(1.0003254657354 -0.0050172387133696 0)
(1.0004587064292 -0.0059457328102009 0)
(1.0006164679435 -0.0068810217024392 0)
(1.0007995623794 -0.0078255647645265 0)
(1.0010096943854 -0.0087818500315391 0)
(1.0012479517332 -0.0097507172250458 0)
(1.0015168530099 -0.010733811544188 0)
(1.0018171675065 -0.011730498959907 0)
(1.0021525211498 -0.01274273541768 0)
(1.0025224149739 -0.0137673626445 0)
(1.0029324310308 -0.014807498003317 0)
(1.0033790350907 -0.015855532965751 0)
(1.0038721503706 -0.016919528318272 0)
(1.0044018579065 -0.017984083956345 0)
(1.0049879746452 -0.01906977933833 0)
(1.0056065867533 -0.020143373527408 0)
(1.0062991322378 -0.021252691854366 0)
(1.0070103167892 -0.022322703258042 0)
(1.0078284634015 -0.023462413971456 0)
(1.00862902238 -0.024502423662114 0)
(1.009602575953 -0.025691512836888 0)
(1.0104736383457 -0.026648008882913 0)
(1.0116580172898 -0.027938036679607 0)
(1.0125526082882 -0.02870085506705 0)
(1.0140756950941 -0.030218503834092 0)
(1.0000007110899 -0.00048511214963586 0)
(1.0000211354512 -0.0014315506804927 0)
(1.0000587208962 -0.0023730211094008 0)
(1.0001150846831 -0.0033259598980849 0)
(1.0001916796253 -0.0042901370033615 0)
(1.0002894368693 -0.005261472441359 0)
(1.000408810735 -0.0062390578462207 0)
(1.0005507659589 -0.0072255306838977 0)
(1.0007162704708 -0.00822403371472 0)
(1.0009072916802 -0.0092376904657198 0)
(1.001125126763 -0.010267728214418 0)
(1.0013726787707 -0.011316245063034 0)
(1.001650924899 -0.012382710283862 0)
(1.0019640329531 -0.013469419811878 0)
(1.002311594244 -0.014572838749262 0)
(1.0026999759145 -0.015696533190582 0)
(1.003125424608 -0.01683207463281 0)
(1.0035991710755 -0.01798888907702 0)
(1.0041104508945 -0.019150079319421 0)
(1.0046815455043 -0.020339373433408 0)
(1.0052862948426 -0.021519874916075 0)
(1.0059710114521 -0.022745761045914 0)
(1.0066749054491 -0.023933022110595 0)
(1.0074962151051 -0.025204152092445 0)
(1.0082976899141 -0.026369250919417 0)
(1.0092905701127 -0.027707097871452 0)
(1.0101710957625 -0.028790474728926 0)
(1.0113992309263 -0.030252620646868 0)
(1.0123101963515 -0.031131637738732 0)
(1.0139191931171 -0.032858979386236 0)
(1.0000006990871 -0.0005042270222087 0)
(1.0000182089739 -0.0014847582765271 0)
(1.0000499362799 -0.0024600897644419 0)
(1.0000975462124 -0.003449375293419 0)
(1.0001626114927 -0.0044521673389275 0)
(1.0002461689788 -0.0054636994032435 0)
(1.0003487575064 -0.0064830890235631 0)
(1.0004714803602 -0.0075136297838933 0)
(1.0006154590222 -0.0085592171940778 0)
(1.0007829089383 -0.0096236661832649 0)
(1.000975340802 -0.010708649908526 0)
(1.0011960215834 -0.011816758972523 0)
(1.0014461547971 -0.012947619489246 0)
(1.0017304183121 -0.014103879315189 0)
(1.0020485366139 -0.015281673042758 0)
(1.0024076091009 -0.016485015442777 0)
(1.0028037509092 -0.017704742883842 0)
(1.003249413229 -0.018951689364118 0)
(1.0037331595786 -0.020207616196924 0)
(1.004279555494 -0.021499454126453 0)
(1.0048605622333 -0.022786886476647 0)
(1.0055269391214 -0.024130360232577 0)
(1.0062132033473 -0.025437293050368 0)
(1.0070264998378 -0.026843249567786 0)
(1.0078185933031 -0.028138651182309 0)
(1.0088191050769 -0.029631178042369 0)
(1.0096996721406 -0.030849922252437 0)
(1.0109593636166 -0.032492529052885 0)
(1.0118796755859 -0.033500232599912 0)
(1.0135618578463 -0.035447454934625 0)
(1.0000006784942 -0.00051948034367339 0)
(1.0000148082525 -0.0015261231439795 0)
(1.0000397748337 -0.0025273448669153 0)
(1.0000772718603 -0.0035451524933134 0)
(1.0001289804408 -0.0045788463360466 0)
(1.0001960339594 -0.005622929048878 0)
(1.0002790476978 -0.0066765545753859 0)
(1.0003792506124 -0.0077437209675424 0)
(1.0004979063238 -0.0088291339152616 0)
(1.0006374593177 -0.0099373493830749 0)
(1.0007996249826 -0.011070535087824 0)
(1.0009880089452 -0.012231813059734 0)
(1.0012040440841 -0.013421012835692 0)
(1.001452878713 -0.014641149433737 0)
(1.0017344021948 -0.015888077475866 0)
(1.0020563741243 -0.017166254074825 0)
(1.0024148709697 -0.018465897944198 0)
(1.0028234286211 -0.019799246126767 0)
(1.0032701538826 -0.021146960380451 0)
(1.0037816288012 -0.022539120424224 0)
(1.0043283906157 -0.023932382350456 0)
(1.0049650659946 -0.025393182994581 0)
(1.005622464979 -0.026821096499065 0)
(1.0064153291984 -0.028363879746212 0)
(1.0071865720305 -0.029793858779564 0)
(1.0081812901393 -0.031445440652534 0)
(1.0090510757211 -0.032807532798742 0)
(1.0103277682892 -0.034637117284398 0)
(1.0112489543756 -0.035786442956635 0)
(1.012988403118 -0.037961214075395 0)
(1.0000006497664 -0.00053085877123615 0)
(1.0000109746781 -0.0015556512982497 0)
(1.00002835748 -0.0025748056427857 0)
(1.0000545007196 -0.0036132819000799 0)
(1.0000911783143 -0.0046700960854602 0)
(1.0001396083749 -0.0057389806317455 0)
(1.0002004706542 -0.0068191324162994 0)
(1.0002751029322 -0.0079152915729471 0)
(1.00036489235 -0.0090330194367611 0)
(1.0004724878589 -0.010177652983449 0)
(1.0005997897132 -0.011351894370651 0)
(1.0007507108244 -0.012559431081474 0)
(1.0009269009631 -0.013800335749086 0)
(1.0011339339694 -0.015078007988743 0)
(1.0013718773099 -0.0163880701822 0)
(1.0016490713746 -0.01773542075999 0)
(1.0019616343735 -0.019109787542983 0)
(1.0023240249734 -0.020524782843891 0)
(1.0027241216978 -0.021960268494179 0)
(1.0031901841773 -0.023449314430099 0)
(1.0036918533023 -0.02494611798264 0)
(1.004286900375 -0.02652258562639 0)
(1.0049035729013 -0.028071539437172 0)
(1.0056626349904 -0.029751563947396 0)
(1.0064006270659 -0.031319256091386 0)
(1.0073746756682 -0.033132435584997 0)
(1.0082216288533 -0.034645109021732 0)
(1.0094986743153 -0.036665981331516 0)
(1.010410844238 -0.037970026197451 0)
(1.0121887037267 -0.040376985297314 0)
(1.0000006124487 -0.00053842367543297 0)
(1.0000067598322 -0.0015735555127663 0)
(1.0000158429693 -0.0026028327148584 0)
(1.0000295420454 -0.0036542461495938 0)
(1.0000497109798 -0.0047264810331833 0)
(1.0000776384327 -0.0058124632820186 0)
(1.0001140541175 -0.0069114357478294 0)
(1.0001603833178 -0.0080289068655685 0)
(1.0002181130373 -0.0091713271277228 0)
(1.0002900648811 -0.010344842422061 0)
(1.0003782979722 -0.011552721790979 0)
(1.0004869907814 -0.012799242970796 0)
(1.0006179896379 -0.014084758920285 0)
(1.0007772351231 -0.015413064425462 0)
(1.0009649771984 -0.016779602142377 0)
(1.001190041817 -0.018189704349871 0)
(1.0014486603588 -0.01963274726372 0)
(1.0017560314963 -0.021123668675471 0)
(1.0021000320061 -0.022641868652174 0)
(1.0025102104536 -0.024223166088879 0)
(1.0029558764799 -0.02582001026598 0)
(1.0034971071571 -0.027509024520217 0)
(1.0040608597764 -0.029177748989962 0)
(1.0047721191619 -0.030993705740913 0)
(1.0054637993784 -0.032700940213888 0)
(1.0064011986836 -0.034676235016722 0)
(1.0072122654394 -0.036345739657409 0)
(1.0084712684059 -0.038559690619404 0)
(1.0093632005922 -0.040031405270095 0)
(1.0111580102096 -0.042671725871101 0)
(1.0000005676627 -0.00054229313185856 0)
(1.0000022255557 -0.0015802578054008 0)
(1.0000024052811 -0.0026121460415707 0)
(1.0000027487509 -0.0036690012920615 0)
(1.0000051628345 -0.0047491592391809 0)
(1.0000109921593 -0.005844708619023 0)
(1.0000210019184 -0.0069549346321161 0)
(1.0000366786978 -0.0080861262437135 0)
(1.0000595827936 -0.009245644344555 0)
(1.0000926682643 -0.010440457704702 0)
(1.0001381240582 -0.011674426502932 0)
(1.0002003388234 -0.012952430876904 0)
(1.000281335257 -0.014275140318749 0)
(1.0003873413122 -0.015646742832968 0)
(1.0005187982098 -0.017062565438445 0)
(1.0006848918625 -0.018528345752622 0)
(1.0008820473371 -0.020033276310522 0)
(1.0011259811303 -0.021593522369007 0)
(1.0014048085723 -0.023188417376044 0)
(1.0017489240053 -0.024856194296695 0)
(1.0021278980976 -0.026548383907638 0)
(1.0026031805575 -0.028345388198604 0)
(1.0031017851235 -0.030131227222858 0)
(1.0037509548668 -0.032080028617508 0)
(1.0043828848338 -0.033927193736257 0)
(1.0052669160125 -0.036062968221371 0)
(1.0060283094322 -0.037894353973198 0)
(1.0072495479037 -0.040300486433692 0)
(1.0081088805087 -0.041952376597894 0)
(1.0098970159279 -0.044823477048667 0)
(1.0000005165843 -0.00054265059794682 0)
(0.99999743568758 -0.0015763423358961 0)
(0.99998823853821 -0.0026037242746952 0)
(0.99997449542299 -0.0036589051752959 0)
(0.99995815523068 -0.0047398290156272 0)
(0.99994060093336 -0.0058377188598615 0)
(0.99992261533528 -0.0069518974817762 0)
(0.99990571529164 -0.0080894336252001 0)
(0.99989150765654 -0.0092586085137162 0)
(0.99988303192461 -0.010467214632173 0)
(0.99988257735397 -0.011719723184539 0)
(0.99989467323908 -0.013021616342859 0)
(0.99992149844218 -0.014373915053583 0)
(0.99996947025033 -0.015781182895408 0)
(1.0000392330434 -0.017238704778482 0)
(1.0001401840611 -0.018752574946705 0)
(1.0002690260993 -0.020311987079938 0)
(1.0004417428003 -0.021934205553663 0)
(1.0006469295871 -0.023598906143007 0)
(1.0009153471701 -0.025346371647439 0)
(1.0012174209038 -0.027128062683928 0)
(1.0016149931846 -0.029027170060074 0)
(1.0020364864097 -0.030926061410408 0)
(1.00260935385 -0.033002918436395 0)
(1.0031680390654 -0.034988819504777 0)
(1.0039815886295 -0.03728126962408 0)
(1.004679045903 -0.039278113325448 0)
(1.0058419015378 -0.041872788948468 0)
(1.0066553966237 -0.043716696405751 0)
(1.0084116895951 -0.046812140784768 0)
(1.0000004596996 -0.00053971859281169 0)
(0.99999245689528 -0.001562528992756 0)
(0.99997353743589 -0.002578788729436 0)
(0.99994517577074 -0.0036256373432986 0)
(0.99990934130331 -0.0047005996380744 0)
(0.99986743743745 -0.0057940112474514 0)
(0.99982025343809 -0.0069052253562018 0)
(0.99976930212546 -0.0080420755482765 0)
(0.99971620875544 -0.0092137584534508 0)
(0.99966404127982 -0.010428866828444 0)
(0.99961515995644 -0.011692499228989 0)
(0.99957415877444 -0.013010725689766 0)
(0.99954335410916 -0.014384960149834 0)
(0.9995292436396 -0.015820106448301 0)
(0.99953268065781 -0.017311492221246 0)
(0.99956311584594 -0.018865503665535 0)
(0.99961760237976 -0.020471514500119 0)
(0.99971213504479 -0.022147764935657 0)
(0.99983600045867 -0.023874615971925 0)
(1.0000198561558 -0.025694124345927 0)
(1.0002355075182 -0.027558353954073 0)
(1.0005442590929 -0.029552543066046 0)
(1.0008772028058 -0.031558943991057 0)
(1.0013599949513 -0.033757670000251 0)
(1.0018322444884 -0.035879309901011 0)
(1.0025582426825 -0.038322786714179 0)
(1.003177279752 -0.040486653460007 0)
(1.0042605018149 -0.043263471693044 0)
(1.0050142305323 -0.045310110236342 0)
(1.0067126979029 -0.048619528636524 0)
(1.0000003962299 -0.00053375027538111 0)
(0.99998734401411 -0.0015396260345295 0)
(0.99995847850079 -0.0025387060768201 0)
(0.99991515001537 -0.0035711017571352 0)
(0.99985933190745 -0.0046338944089875 0)
(0.99979242809593 -0.0057165080936418 0)
(0.99971522424296 -0.0068183126172156 0)
(0.99962919718517 -0.00794788702233 0)
(0.99953597686524 -0.0091153430827742 0)
(0.99943858717623 -0.010330025483917 0)
(0.9993394212307 -0.011597668463779 0)
(0.99924304391124 -0.012924877710023 0)
(0.99915190238374 -0.014313511688728 0)
(0.99907245131481 -0.015768749689914 0)
(0.99900576978218 -0.017286076585815 0)
(0.9989611906222 -0.018872081132037 0)
(0.99893619367614 -0.020516499803363 0)
(0.99894652442947 -0.022238431051141 0)
(0.99898232765124 -0.024019166096077 0)
(0.99907373282362 -0.025902411694815 0)
(0.99919429178479 -0.027841134384228 0)
(0.99940402659438 -0.029922511502381 0)
(0.99963762393189 -0.032029132075652 0)
(1.0000173781136 -0.034342689344375 0)
(1.0003904846499 -0.036594591817427 0)
(1.0010126155519 -0.039182817282329 0)
(1.0015390323128 -0.041511866733483 0)
(1.0025212493352 -0.044462932862589 0)
(1.0032004978383 -0.046718881375079 0)
(1.0048145882574 -0.05022768938962 0)
(1.0000003218471 -0.00052502197285179 0)
(0.99998214102055 -0.0015084991052352 0)
(0.99994321330996 -0.0024849147727973 0)
(0.99988473893533 -0.0034972794718114 0)
(0.9998086833342 -0.0045422406761692 0)
(0.99971644005871 -0.0056082922275258 0)
(0.99960877054146 -0.006694775906314 0)
(0.9994870582165 -0.007810957689381 0)
(0.99935294927938 -0.0089678755149201 0)
(0.99920935961011 -0.010175607347128 0)
(0.9990587048798 -0.011440565711488 0)
(0.99890538689829 -0.01276978176798 0)
(0.99875200355519 -0.014165615637325 0)
(0.99860476348612 -0.015633382793113 0)
(0.99846507200051 -0.017168907213266 0)
(0.9983418593116 -0.018778765296361 0)
(0.9982332622737 -0.020453356529596 0)
(0.9981543366174 -0.022212339500232 0)
(0.99809645727183 -0.024038324910369 0)
(0.9980885774395 -0.025976414964485 0)
(0.99810649970594 -0.027980670929665 0)
(0.9982081431169 -0.03014058935187 0)
(0.99833242357814 -0.032338115642589 0)
(0.99859735026345 -0.034759164691561 0)
(0.99885884729317 -0.037131703122512 0)
(0.99936238349625 -0.039860316184221 0)
(0.99978266134905 -0.042345399044772 0)
(1.0006445052361 -0.045468159334919 0)
(1.0012354270872 -0.047926974403496 0)
(1.0027359180691 -0.051620143557099 0)
(1.0000002286008 -0.00051387563054105 0)
(0.99997694243958 -0.0014702097701116 0)
(0.99992798538698 -0.0024190493950976 0)
(0.99985433876903 -0.0034062593441239 0)
(0.99975796615796 -0.0044281844923572 0)
(0.99964030943711 -0.005472402424291 0)
(0.99950211615711 -0.0065381829190547 0)
(0.99934457068356 -0.0076353158952529 0)
(0.99916926955531 -0.0087756647409734 0)
(0.99897892383826 -0.0099700684341647 0)
(0.99877605702971 -0.011225750932006 0)
(0.99856479470553 -0.012550061679508 0)
(0.99834796603031 -0.013945965815018 0)
(0.99813120517018 -0.015418725442691 0)
(0.9979165249791 -0.016964823905976 0)
(0.99771190364241 -0.018590396341736 0)
(0.99751676976612 -0.020287097715291 0)
(0.99734442336707 -0.022074283346454 0)
(0.99718872539445 -0.0239369623946 0)
(0.99707553514409 -0.025920292218414 0)
(0.996985137413 -0.027980965469504 0)
(0.9969702793346 -0.030209669219191 0)
(0.99697745800672 -0.032487970997398 0)
(0.99711629127353 -0.035008712970198 0)
(0.99725539060231 -0.037488496172401 0)
(0.99762595708173 -0.040357399582969 0)
(0.99792761368145 -0.042977178201806 0)
(0.99865306369382 -0.046291411317494 0)
(0.99914976162212 -0.048916928837304 0)
(1.0005044348756 -0.05282294690947 0)
(1.000000088799 -0.00050077993325063 0)
(0.999971962189 -0.0014263634499959 0)
(0.99991335210518 -0.0023435704825944 0)
(0.99982470021859 -0.0033010160092268 0)
(0.9997080105956 -0.0042949817341884 0)
(0.99956496098932 -0.005312198798167 0)
(0.99939641303627 -0.006351984921104 0)
(0.99920337480788 -0.0074245194032476 0)
(0.99898715874156 -0.0085421663389959 0)
(0.99874999127009 -0.0097164979707305 0)
(0.99849460143446 -0.010955612883818 0)
(0.99822483097401 -0.012267116817387 0)
(0.99794381917685 -0.013654742392864 0)
(0.99765629731375 -0.01512359464505 0)
(0.99736524485735 -0.016671236268435 0)
(0.99707707759799 -0.018302961015648 0)
(0.99679346009141 -0.020012729544637 0)
(0.99652436699457 -0.02181829396092 0)
(0.99626837314335 -0.023709282339743 0)
(0.99604450315507 -0.025727710507971 0)
(0.99584273191588 -0.027837720546107 0)
(0.99570258057614 -0.030124928002771 0)
(0.99558932045341 -0.032478852724433 0)
(0.99558838764004 -0.03509119318438 0)
(0.9956015103692 -0.037672293963041 0)
(0.99581853901064 -0.040686294966896 0)
(0.99599543671711 -0.043416052067462 0)
(0.99655803897707 -0.04698376433988 0)
(0.99697000254432 -0.049683466466003 0)
(0.99815255756502 -0.054041059623941 0)
(0.99999979232055 -0.00048680945599774 0)
(0.99996701004926 -0.0013800621070684 0)
(0.99989951445755 -0.0022641069514887 0)
(0.99979636802973 -0.0031904691424728 0)
(0.99965959709916 -0.0041549573891228 0)
(0.99949125483033 -0.0051430202480331 0)
(0.99929248102068 -0.0061540046396353 0)
(0.99906452710898 -0.0071988945146963 0)
(0.99880819271978 -0.0082908561713099 0)
(0.99852482721513 -0.0094421599870449 0)
(0.99821733621303 -0.010661503069019 0)
(0.99788932471618 -0.011956707057263 0)
(0.99754410638297 -0.013332445018664 0)
(0.99718550039131 -0.014793908662278 0)
(0.99681735970923 -0.016339777967699 0)