/*--------------------------------*- C++ -*----------------------------------*\
| =========                 |                                                 |
| \\      /  F ield         | OpenFOAM: The Open Source CFD Toolbox           |
|  \\    /   O peration     | Version:  2112                                  |
|   \\  /    A nd           | Website:  www.openfoam.com                      |
|    \\/     M anipulation  |                                                 |
\*---------------------------------------------------------------------------*/
FoamFile
{
    version     2.0;
    format      ascii;
    arch        "LSB;label=32;scalar=64";
    class       volScalarField;
    location    "8.5";
    object      p;
}
// * * * * * * * * * * * * * * * * * * * * * * * * * * * * * * * * * * * * * //

dimensions      [0 2 -2 0 0 0 0];

internalField   nonuniform List<scalar> 
22000
(
0.0056842306520462
0.0056617520919223
0.0056154355225853
0.0055440141899651
0.005446939174739
0.0053242878554991
0.0051764020802546
0.0050036344429163
0.004806273290928
0.0045845665192408
0.0043387629557844
0.0040691441321298
0.0037760322465424
0.0034597946505983
0.0031208327132946
0.0027595883416346
0.0023765266878779
0.0019721584318707
0.001547008050864
0.0011016631907955
0.00063670535939591
0.0001528160518664
-0.00034937631999209
-0.00086906522101149
-0.0014056097103193
-0.0019580222616516
-0.0025257422835276
-0.0031074921635995
-0.0037030017019298
-0.0043104900739211
0.0061052448461047
0.0060813983885087
0.0060332590341014
0.0059596868719588
0.0058601152786587
0.0057345537925217
0.0055832842196327
0.0054066253627358
0.005204850469912
0.0049781996926987
0.0047269146749421
0.0044512697210945
0.0041515783692451
0.003828200365296
0.0034815277462221
0.003111996441877
0.0027200626889287
0.0023062364021927
0.0018710349662639
0.0014150557167944
0.00093887142215194
0.00044318723755832
-7.1394452557078e-05
-0.00060401919257017
-0.0011541193524712
-0.001720602829705
-0.0023030841122295
-0.0029000786064914
-0.0035117032958906
-0.0041358793032902
0.0068792656302264
0.0068543346003584
0.0068041032550943
0.0067274870619738
0.0066239550110167
0.0064935147109155
0.0063364276044579
0.0061529914639666
0.0059434617260594
0.0057080631672139
0.0054470220995902
0.0051605981489918
0.0048490883194483
0.0045128375967543
0.0041522206660572
0.0037676618244111
0.003359600246408
0.002928541270751
0.0024749839457084
0.0019995343179592
0.0015027393535528
0.00098534022585153
0.00044788847502926
-0.00010866407048297
-0.0006838728014333
-0.0012764127278016
-0.0018861963827442
-0.0025112604618135
-0.0031524152679749
-0.0038068566922315
0.0079595427022026
0.0079333707601249
0.0078806395823961
0.0078002258240254
0.0076915897456548
0.0075547396597269
0.0073899318800322
0.0071974507249533
0.0069775307441461
0.0067303721830308
0.0064561748449123
0.006155173181777
0.0058276371735165
0.0054738874200279
0.0050942701093016
0.0046891884681669
0.0042590522290367
0.003804354781241
0.003325563230572
0.0028232906906285
0.0022980415357355
0.0017506033906677
0.0011814483411316
0.00059166237960274
-1.8495608447083e-05
-0.00064737615853583
-0.0012953404070527
-0.0019597657610057
-0.0026425056122848
-0.0033397654573738
0.009306168215259
0.0092785593557769
0.0092229239007023
0.0091380811905112
0.0090234671133481
0.0088790803972996
0.0087051654731743
0.0085019868603278
0.0082697494425988
0.0080086172570942
0.0077187495987437
0.0074003410072223
0.0070536185475077
0.0066788627841578
0.0062763739305322
0.0058465181948289
0.0053896566747542
0.0049062562964922
0.0043967309661887
0.0038616910800659
0.0033015726840201
0.0027172114676715
0.0021089623008471
0.0014780729812768
0.00082454564292026
0.00015043950323646
-0.00054520378276998
-0.0012589118518968
-0.0019938900718224
-0.0027450374687148
0.010884359514591
0.010855192623281
0.010796405351569
0.010706753404788
0.010585641534533
0.010433049327012
0.010249197442113
0.01003431741645
0.0097885697716161
0.0095120660855494
0.0092049071827353
0.0088672287020127
0.0084991940204471
0.0081010225160033
0.0076729450681469
0.0072152687946806
0.0067282806077741
0.0062123999140499
0.0056679592497818
0.0050955495531238
0.0044955055936496
0.0038687055232361
0.0032153419667861
0.0025368460657715
0.001832886898785
0.0011060138441073
0.00035452213414769
-0.00041708154330628
-0.0012136625686908
-0.0020285242020916
0.012662897291062
0.012632141622626
0.012570135448227
0.012475566005084
0.01234780116433
0.012186791689025
0.011992720866143
0.011765771235438
0.011506041121373
0.011213570248738
0.010888379703337
0.010530523427896
0.010140075885241
0.0097171689675966
0.0092619350633605
0.008774593712144
0.0082553250424282
0.0077044722867246
0.0071222502326187
0.0065092050192537
0.0058655280284684
0.0051921252513596
0.004488972601152
0.00375769599589
0.0029975456305663
0.0022116303156516
0.0013973400675606
0.00056038234333237
-0.00030608510577276
-0.0011935195235455
0.014612910053696
0.01458062350912
0.014515509199131
0.014416183375867
0.014281971756621
0.014112785801968
0.013908756393209
0.013669999231659
0.013396530426978
0.013088295815121
0.012745212297021
0.01236722552172
0.011954291393659
0.011506422966814
0.011023619289836
0.010505977482148
0.0099535312357916
0.0093665112269452
0.0087449696520027
0.008089373396809
0.0073997186330639
0.0066769137825038
0.0059206526210422
0.0051327555908652
0.0043119568176151
0.0034619787375021
0.0025791378991576
0.0016704890082218
0.00072689100559259
-0.00024105395036427
0.016707105644673
0.016673431526186
0.016605491966032
0.016501832115406
0.016361730857799
0.016185049122954
0.01597184909465
0.01572216038139
0.015435895340628
0.015112882099766
0.014752906712872
0.014355777152373
0.013921297745328
0.013449327334605
0.012939692060355
0.012392326237618
0.011807071069051
0.011184000889533
0.010522952212697
0.0098242687127404
0.0090876893429309
0.0083140879318911
0.0075027991330607
0.0066558224126964
0.0057712671765482
0.004853506129004
0.0038976062706035
0.0029120911956592
0.0018851961476387
0.00082974077144258
0.018919361963653
0.018884523566596
0.018814203438011
0.01870687761224
0.018561773761061
0.01837869064322
0.018157605080958
0.017898441123324
0.017600985620086
0.017264924688595
0.016889885948811
0.016475508819355
0.016021410949385
0.015527258833314
0.014992662624707
0.014417348986407
0.013800915225171
0.013143228995624
0.01244385070057
0.011702947882487
0.010919931166229
0.010095590358582
0.0092288134230383
0.0083217461587616
0.0073717539105566
0.0063838661763763
0.0053517206855932
0.0042853890305454
0.0031701722920028
0.0020212145493728
0.021224566224266
0.021188858778795
0.021116748449709
0.021006645820179
0.020857723518794
0.020669706856689
0.020442471458842
0.020175817482604
0.019869385642452
0.019522696611477
0.019135192466283
0.018706313216725
0.018235454297819
0.017722050656391
0.017165451612326
0.016565128502225
0.015920379640583
0.015230810394338
0.014495638792378
0.013714794888874
0.012887282573627
0.012013745860008
0.011092534101278
0.010125885258398
0.0091103106228982
0.0080514552178042
0.0069413758503898
0.0057916457565155
0.0045843590867736
0.0033367760284036
0.02359863098412
0.023562411085504
0.023489225998004
0.023377424966133
0.023226122162543
0.0230349597752
0.022803698712934
0.022531999402555
0.02221933822058
0.021865049224954
0.021468363950083
0.02102849404112
0.020544578812531
0.02001578352842
0.019441152279254
0.018819852703799
0.018150827619804
0.017433360983376
0.016666258511071
0.015849142883148
0.014980528060003
0.014060830503484
0.013087772726583
0.012063579917177
0.010983864409876
0.0098546896415944
0.0086667254420536
0.0074324202905594
0.0061317330352352
0.0047818589983908
0.026018621746503
0.025982292884792
0.025908847268578
0.025796576144827
0.025644532285732
0.025452267551078
0.025219418152311
0.024945492539272
0.024629788060232
0.024271434703609
0.023869432403445
0.023422739399336
0.022930208762936
0.022390701266114
0.021802914361087
0.021165665466863
0.020477487031933
0.019737281349567
0.018943372457233
0.018094997757733
0.017190102586629
0.016228763344851
0.015208024420569
0.014129864529316
0.012989142230651
0.011791664047607
0.010527563643715
0.009208717983024
0.0078141788940519
0.0063623718437489
0.028462956493386
0.028426952787931
0.028354123639914
0.028242710319531
0.028091704602726
0.027900563533229
0.027668791701225
0.027395736732509
0.027080506368311
0.026722014041747
0.02631901270555
0.025870188074077
0.025374082823326
0.024829224020007
0.024233926675466
0.023586615991214
0.022885364165831
0.02212863313118
0.021314200693653
0.020440835377623
0.019505843112591
0.018508829992717
0.017446112617443
0.016319219642028
0.015122207954458
0.013860537921619
0.012523255813253
0.011122573065742
0.0096350785599106
0.0080804133576709
0.030911607939129
0.030876379756634
0.030805073484675
0.030695895389775
0.030547781697256
0.030360093450157
0.030132200261054
0.029863284752662
0.02955225969381
0.029197815021736
0.028798447514819
0.028352558293423
0.027858363252706
0.027314034417679
0.026717476825076
0.026066688845913
0.025359240612944
0.024593100547693
0.023765442509168
0.02287448631469
0.021916826328793
0.020891485661358
0.019793956304326
0.018625206218392
0.017378277477495
0.016058318008402
0.014652823780545
0.013174381249454
0.011596951401737
0.0099404904129363
0.033346275794537
0.03331227383925
0.03324339899741
0.033137840897272
0.032994489398043
0.032812611803967
0.03259144265935
0.032329999663229
0.032027001539821
0.031680915820411
0.031289982317225
0.030852313251015
0.030365789564842
0.029828216076828
0.029237070554309
0.028589900144256
0.027883741641893
0.02711602700463
0.026283276530448
0.025383093642381
0.024411286135899
0.023366203601686
0.022242389685313
0.021040170259368
0.019751347766087
0.018380715095865
0.016913906318044
0.015363723747544
0.013701180806739
0.011945971327701
0.035750543965685
0.035718205705438
0.03565264609508
0.035552059025907
0.035415299754732
0.035241547074939
0.035029904472798
0.034779229967173
0.034488055123234
0.034154632891109
0.033776953357692
0.033352845435792
0.032879857474481
0.032355425159248
0.03177659276272
0.031140443937198
0.030443463361732
0.029682517557188
0.02885343433994
0.027953150055514
0.026976614046181
0.025921432380024
0.024781069076189
0.023555134755602
0.022233971845603
0.020821958224491
0.019302544750422
0.017688655825387
0.015947787355534
0.014098816200033
0.038109989696905
0.038079727007197
0.038018317017968
0.037923980109241
0.037795550439917
0.037632126882524
0.037432690484695
0.037195950215714
0.036920263178514
0.036603681940735
0.036243961323364
0.035838660799436
0.0353850086375
0.03488008166307
0.034320497059953
0.033702875809192
0.033023146042363
0.032277595717863
0.031461336826119
0.030570605300154
0.029599436198437
0.028544634710265
0.027398478259287
0.026159763127966
0.024817207653825
0.023374600077536
0.021812998402582
0.020145364893153
0.018334881226928
0.016400064432995
0.040412235354256
0.040384425320322
0.040327929127094
0.040241017158872
0.040122517546675
0.039971460612775
0.039786717855175
0.039566864686912
0.039310101862725
0.039014302058291
0.038677006770875
0.038295528218031
0.037866796481787
0.037387549841261
0.036853997761128
0.036262312952036
0.035607878127385
0.034886404441504
0.034092284766493
0.033221037540619
0.032265753699051
0.03122239382829
0.03008198265399
0.028842402317803
0.02749064299408
0.026029616924883
0.024437845455766
0.022727838434966
0.020858037127036
0.01884682434551
0.042646936609735
0.042621920488928
0.042571023587287
0.042492584816723
0.042385443051396
0.042248578383034
0.042080771187298
0.041880481340069
0.041645774090382
0.041374366931679
0.041063616923514
0.040710618864588
0.040312036673651
0.039864299952624
0.039363243886648
0.038804619331958
0.03818329544849
0.037494419662949
0.036731689041401
0.035889893310643
0.034961188310574
0.033940642129823
0.032818015284178
0.031590189980061
0.030242404871759
0.028776515711732
0.027168315988466
0.025428988802679
0.023511888968927
0.021432654055207
0.044805702696415
0.044783789112762
0.044739106645935
0.044670064811574
0.044575524259663
0.044454439976735
0.044305529134303
0.044127159489533
0.043917284804271
0.04367349449616
0.04339299570612
0.043072699130949
0.042709042107497
0.042298179558137
0.041835620603412
0.041316726620963
0.040735912854986
0.040087783223301
0.039365410812537
0.038562841079216
0.037671375205517
0.036685105838153
0.035592600070992
0.034389579499877
0.033059584529216
0.031603394446534
0.029994151597828
0.028241645436304
0.026292534615567
0.024156396970406
0.046881986075537
0.046863415994358
0.046825465690991
0.046766617288829
0.046685760018422
0.046581834201473
0.046453508208575
0.046299082400265
0.046116434290063
0.045903059220237
0.045656059742709
0.045372199795143
0.045047738123044
0.044678589386399
0.044260000015466
0.043786965390487
0.043253531177815
0.042653752600894
0.041980214801115
0.041226159330391
0.040382266120584
0.039441465377726
0.038391481999923
0.037226435167247
0.035928482745148
0.034496740716331
0.032902007431553
0.031154177590746
0.029192526351367
0.027019501318751
0.048871058856034
0.048855902189999
0.04882493355462
0.048776767115369
0.048710390653312
0.048624738999067
0.048518400498554
0.048389589431482
0.048236131445115
0.048055460593585
0.047844625789089
0.047600281411112
0.047318564602955
0.046995188472679
0.046625222083719
0.046203316643534
0.045723265138056
0.045178523096415
0.044561374184728
0.043864050762255
0.043077017022849
0.042191531929059
0.041195419550513
0.040080010472146
0.038827872437703
0.037433529906906
0.035867377781092
0.034135100096502
0.03217483645603
0.029990090201907
0.050770151811887
0.050758263544787
0.050734070009188
0.05069646866371
0.05064463806196
0.050577562255202
0.05049379081106
0.050391466994992
0.05026832987171
0.050121793913072
0.049948861532409
0.0497460569318
0.049509413565758
0.049234463148709
0.048916152457608
0.048548808906979
0.048126075955029
0.047640796599128
0.047085146688104
0.046450147527625
0.045726458383548
0.044902874778232
0.0439685602509
0.042909752680385
0.041713521279418
0.040363420480779
0.038839375646091
0.037120508557216
0.035158284273255
0.032927500133279
0.052578925988342
0.052570330267942
0.052552555158382
0.052525359120703
0.052487882532801
0.052439003079344
0.052377337794956
0.052301207166813
0.052208577090222
0.052096943336758
0.051963183198855
0.051803647058469
0.051614227382257
0.0513902758026
0.05112664696344
0.050817395978434
0.050456083921744
0.050035062572233
0.04954656774053
0.048980628219337
0.048328422133594
0.047576313733045
0.046715342671551
0.045725557085802
0.044601024604328
0.043309990891373
0.041856317198561
0.040175326452298
0.038263623770794
0.035887790009285
-0.0048920279840658
-0.0054451333923768
-0.0060067211661748
-0.0065756262988798
-0.0071508114851713
-0.0077314653729154
-0.0083169039356578
-0.0089064343378417
-0.0094993119981582
-0.010094764720698
-0.010692014780718
-0.011290282779717
-0.011888789425977
-0.0124867593613
-0.013083422138512
-0.013678010128404
-0.014269758838128
-0.01485790827669
-0.015441704585554
-0.016020401043438
-0.016593257107415
-0.017159535200393
-0.017718493095475
-0.018269374678782
-0.018811420391699
-0.019344146305996
-0.019867008445082
-0.020379348319867
-0.020880483421529
-0.021369770835761
-0.021846622858407
-0.022310494665401
-0.022760874339483
-0.023197274448257
-0.023619235324328
-0.024026317649857
-0.024418116820251
-0.024794244182832
-0.025154357594817
-0.025498115047877
-0.025825244256764
-0.026135438991558
-0.02642851567103
-0.026704177836522
-0.026962372476812
-0.027202759378357
-0.027425518600811
-0.027630162885997
-0.027817378234481
-0.027986464227609
-0.0047304169410042
-0.0052928365715825
-0.0058648758269479
-0.0064443785632577
-0.0070298849607808
-0.0076207243165514
-0.0082165181366746
-0.0088167542521237
-0.0094207372768966
-0.010027702079673
-0.010636872860364
-0.011247465276148
-0.011858688433824
-0.01246975199493
-0.013079866350737
-0.013688238045705
-0.014294068724946
-0.014896557906846
-0.015494906354658
-0.016088318480757
-0.016676006503842
-0.017257198408478
-0.017831155105201
-0.018397193459909
-0.018954689177758
-0.019502724823433
-0.020040486862142
-0.0205673111026
-0.021082590431412
-0.021585722943015
-0.022076110696411
-0.022553172530568
-0.023016361780103
-0.023465160063645
-0.023899087498134
-0.024317684378022
-0.024720541906176
-0.025107260359691
-0.025477512527818
-0.025830948641466
-0.026167336390769
-0.026486352425172
-0.026787888399665
-0.027071597649985
-0.027337555936056
-0.027585279323921
-0.02781514683025
-0.028026242537583
-0.028219371294918
-0.028392222765315
-0.0044280164825564
-0.0050145572087159
-0.0056132756225034
-0.006219770027094
-0.0068314806679805
-0.0074478289687202
-0.0080689163398722
-0.0086944986656763
-0.0093239043515584
-0.0099563206489239
-0.010590930482082
-0.011226912267872
-0.011863442327763
-0.012499708501065
-0.013134905481052
-0.013768221918164
-0.014398837452202
-0.015025928948013
-0.015648676730326
-0.016266268625877
-0.016877902100218
-0.017482784447927
-0.018080129242318
-0.018669142533117
-0.019249008970141
-0.019819005779462
-0.020378424328767
-0.02092657537163
-0.021462803711479
-0.021986479937769
-0.022496999634155
-0.022993779901342
-0.023476278221924
-0.023943978688509
-0.024396417708754
-0.024833146067632
-0.025253786190857
-0.025657947228689
-0.026045349176731
-0.026415642266939
-0.02676867169327
-0.027104086942722
-0.027421908071006
-0.027721693584471
-0.028003741676352
-0.028267313284965
-0.028513160946998
-0.028739624948405
-0.028947810729131
-0.029132465340353
-0.0040001432170213
-0.0046242980750663
-0.0052641478338218
-0.0059117004772806
-0.006562737079498
-0.0072168747137803
-0.0078749886198116
-0.0085372716608915
-0.0092031056472409
-0.0098716175164409
-0.010541943813101
-0.011213231824706
-0.011884639340201
-0.012555353673786
-0.013224578567376
-0.013891507870211
-0.01455531938059
-0.015215184615327
-0.015870277999941
-0.016519779657552
-0.017162875047934
-0.017798757097197
-0.018426628724356
-0.019045709556375
-0.019655252199284
-0.020254518346459
-0.020842799142965
-0.021419421830303
-0.021983739189439
-0.022535110923254
-0.023072930251114
-0.023596629929229
-0.024105699644162
-0.024599644153366
-0.025078030330739
-0.025540424278955
-0.025986493330424
-0.026415857038743
-0.026828300828177
-0.027223465421082
-0.027601297231886
-0.027961393373851
-0.028303943647004
-0.028628357950857
-0.028935233392995
-0.029223445984012
-0.029494237051007
-0.029744821745148
-0.029976594402694
-0.030179794365589
-0.003455515265296
-0.0041290944381458
-0.0048229398710673
-0.005524095893467
-0.0062261469681771
-0.0069290429661665
-0.0076347498372152
-0.0083440721631877
-0.009056464149921
-0.0097709626137906
-0.010486638614405
-0.011202603602344
-0.011918001583642
-0.01263203138596
-0.013343919628746
-0.014052876867355
-0.014758087821664
-0.015458726735265
-0.01615397213076
-0.016843010118336
-0.017525035459716
-0.018199255064482
-0.018864889601727
-0.019521180423537
-0.020167392330853
-0.020802802849573
-0.021426721015117
-0.02203848964728
-0.022637470712355
-0.023223038064999
-0.023794624253873
-0.024351702717999
-0.024893804449802
-0.025420459400756
-0.025931282223709
-0.026425867023234
-0.026903947087605
-0.027365158337839
-0.027809376317546
-0.028236232130886
-0.028645806330364
-0.029037630721542
-0.029412112003128
-0.029768472196511
-0.03010767746339
-0.03042811804198
-0.030731629094258
-0.031013998808799
-0.031276924463196
-0.031504839591489
-0.0027987442827437
-0.0035326067739845
-0.0042925895674842
-0.0050592393152341
-0.0058233513058465
-0.0065853526602904
-0.0073486358310102
-0.0081147980323661
-0.0088833761310376
-0.0096532711889943
-0.010423455820712
-0.011192993884774
-0.011961017054817
-0.012726744218763
-0.01348943520078
-0.014248325180173
-0.015002611133835
-0.015751477137501
-0.016494115237085
-0.017229728824443
-0.017957534009452
-0.018676757609053
-0.019386640913087
-0.020086447047269
-0.020775456693455
-0.021452985746289
-0.022118401601381
-0.022771077594832
-0.023410388982178
-0.02403574904631
-0.024646661857596
-0.025242652496042
-0.025823302891359
-0.026388184175584
-0.026936987371955
-0.027469351499151
-0.027985102845295
-0.028483907533405
-0.028965765759993
-0.029430310937707
-0.029877800196608
-0.03030770441276
-0.030720699143034
-0.03111581042719
-0.031494442839916
-0.03185445647759
-0.032198368925865
-0.032520344498118
-0.032822348901963
-0.033081884355807
-0.0020322407704267
-0.0028367254844917
-0.0036746520214973
-0.0045183258309422
-0.005355116351921
-0.0061861085601832
-0.0070164977760074
-0.0078488716446648
-0.0086828550228686
-0.0095171556135102
-0.010350606710052
-0.011182209442458
-0.01201108415384
-0.012836479201946
-0.013657697307682
-0.014474004268666
-0.015284613116983
-0.016088720936987
-0.016885538144076
-0.017674291295764
-0.018454224545063
-0.019224593408935
-0.019984671578544
-0.020733763436235
-0.021471188115311
-0.022196293681139
-0.0229085055856
-0.023607257672751
-0.024291986422763
-0.024962164787718
-0.025617365695681
-0.026257170915571
-0.026881245389757
-0.027489228692699
-0.028080917299961
-0.028656014255717
-0.029214474675799
-0.029756017320952
-0.030280809027688
-0.030788507563224
-0.031279594051951
-0.031753503058421
-0.032211232218977
-0.032651637218218
-0.033076615912634
-0.033483511792973
-0.03387556362984
-0.034245203636218
-0.034594497272287
-0.034893017642908
-0.0011562258419742
-0.0020413442794329
-0.0029689163178642
-0.003900996666247
-0.0048208387534599
-0.005730419115518
-0.0066371667303106
-0.0075448772089657
-0.0084532622830334
-0.0093607632197052
-0.01026602142767
-0.011167957227427
-0.01206568183952
-0.012958481841805
-0.013845710572166
-0.014726666980406
-0.015600579218653
-0.016466658216469
-0.017324135340097
-0.018172267661372
-0.01901033350002
-0.019837621901022
-0.020653449965458
-0.021457154877261
-0.022248102492711
-0.023025746024078
-0.023789590538589
-0.024539083539054
-0.025273717772837
-0.025993068078085
-0.026696815842576
-0.027384618054382
-0.028056249100666
-0.028711441200466
-0.029350132985424
-0.029972116743258
-0.03057751864978
-0.03116614149563
-0.031738367387771
-0.03229391738416
-0.032833547260479
-0.033356707877254
-0.033864762970149
-0.034356473643344
-0.034834255553702
-0.035295036869298
-0.035742751354405
-0.036168156715007
-0.036573139741445
-0.036918680038102
-0.00016906945233129
-0.0011446930867079
-0.0021737289654898
-0.0032056496708333
-0.0042188492532308
-0.0052164989192864
-0.0062087540380381
-0.0072008530764112
-0.0081925810598467
-0.009182022070796
-0.010167563167534
-0.011148022722447
-0.012122504889796
-0.013090343658144
-0.014050947887516
-0.015003648223468
-0.015947683726478
-0.016882275229476
-0.017806674000915
-0.018720168489078
-0.01962207643619
-0.020511731575451
-0.021388510808797
-0.022251807448382
-0.023101034974455
-0.023935696699536
-0.02475537118596
-0.025559594907859
-0.026347979843027
-0.027120199666387
-0.027876042806141
-0.028615262855704
-0.029337784304116
-0.030043457535193
-0.0307324006853
-0.031404530674676
-0.032060194846923
-0.032699326122382
-0.033322573856626
-0.033929789244164
-0.034522051212975
-0.035098927584679
-0.03566217539067
-0.036210615125943
-0.03674715930728
-0.037268555600338
-0.037779313763417
-0.038268793865612
-0.038738257187371
-0.039139842482605
0.00093234887323986
-0.00014366522722756
-0.0012862905561481
-0.0024296874026604
-0.0035465991397624
-0.0046417969596238
-0.0057287306549899
-0.0068143284547091
-0.0078984156541295
-0.0089786060271431
-0.010052957496525
-0.011120164793916
-0.012179330183364
-0.013229843124729
-0.014271169551735
-0.015302665542158
-0.016323572656787
-0.017333114952016
-0.018330561987518
-0.019315234220898
-0.020286482485842
-0.021243689860577
-0.022186273344326
-0.023113673235174
-0.024025437493636
-0.024921172483261
-0.025800438511852
-0.026662832204505
-0.027508150366802
-0.028336204110915
-0.02914690874423
-0.029940134227649
-0.030715989311662
-0.031474474213437
-0.032215929726637
-0.032940442477769
-0.03364862664704
-0.034340615472921
-0.035017370427908
-0.035678980574209
-0.036326876660026
-0.036960912260682
-0.037583227700025
-0.03819297257816
-0.038793468539
-0.039381695685211
-0.039962498702117
-0.040524411472036
-0.04106742569794
-0.04153512574474
0.0021522248687107
0.00096590679029135
-0.0003028020828098
-0.0015695991916031
-0.0028007227947573
-0.0040030482569813
-0.0051939613596977
-0.0063823348348322
-0.0075679763302952
-0.0087478933157198
-0.009919731218662
-0.011082039927873
-0.012233927085873
-0.01337484561475
-0.014504314692004
-0.015621703485138
-0.016726241896619
-0.017817146318409
-0.018893696392426
-0.019955237908137
-0.021001159502773
-0.022030886396057
-0.023043897019992
-0.024039688227444
-0.025017846240439
-0.025978049345327
-0.026920017088095
-0.027843464632136
-0.028748293105678
-0.029634416610793
-0.030501922160988
-0.031350838386268
-0.032181489174039
-0.032994062511914
-0.033789154184969
-0.034567093262347
-0.035328791722639
-0.036074698337379
-0.036806101152074
-0.037523505609467
-0.038228674187678
-0.038922017060226
-0.039605974710554
-0.040280438218961
-0.040948944955979
-0.041609346429408
-0.042266429425614
-0.042908853341884
-0.043534493636839
-0.044079425111131
0.0034956324465547
0.0021884625057112
0.00078091247119742
-0.00062122320306354
-0.0019771052243171
-0.0032962917071049
-0.0046007098397792
-0.0059013952715942
-0.0071980544434835
-0.0084869309744505
-0.0097651644110276
-0.011031142102084
-0.012283989636911
-0.013523228590467
-0.014748420580042
-0.015958927828446
-0.017153948809567
-0.018332677444793
-0.01949439442106
-0.02063846237632
-0.021764297528336
-0.022871357939886
-0.023959148724808
-0.02502720859466
-0.026075239141849
-0.027103036417538
-0.028110398452692
-0.029097123772075
-0.030063259691669
-0.031008859494401
-0.031934199226067
-0.032839494911308
-0.033725297824259
-0.034592044928969
-0.035440595425882
-0.036271631947036
-0.03708634617453
-0.037885696629354
-0.038671240598843
-0.039444204726938
-0.040206568599749
-0.04095973921506
-0.041706259944692
-0.042447372566471
-0.043186500609827
-0.043923238686158
-0.044661749810026
-0.045392163729576
-0.046109181944475
-0.046743316524174
0.0049698885986243
0.0035296038251468
0.0019692154532393
0.00041971154616063
-0.0010712994605866
-0.0025171340002913
-0.0039448309556754
-0.0053676694013778
-0.0067851113975013
-0.0081924705252752
-0.0095862889629007
-0.010964776249785
-0.012327089141837
-0.013672818943224
-0.015001548733011
-0.016312603640303
-0.017605124125322
-0.018878261275159
-0.020131278755174
-0.021363541444222
-0.022574478941045
-0.02376357485331
-0.024930373562857
-0.026074417046545
-0.02719548246304
-0.028293497141556
-0.029368370724108
-0.030419976928685
-0.031448502602819
-0.032454162258866
-0.03343742045938
-0.034398723454456
-0.035338839554131
-0.036258547118665
-0.037158925947152
-0.038041184030413
-0.038906699706335
-0.039757237148114
-0.040594443806455
-0.041420746806299
-0.042238058085857
-0.043049475118949
-0.043857254364864
-0.044664901615767
-0.045475235891741
-0.046290767504577
-0.047114357399914
-0.047939302104731
-0.048755944740201
-0.049492092817563
0.0065797116503213
0.0049961286432933
0.003268480121215
0.0015585813762003
-7.8245218800011e-05
-0.0016605783921445
-0.0032215838933969
-0.0047768149934796
-0.0063251998102563
-0.0078609159134274
-0.0093798369245942
-0.010880000996896
-0.012360613711331
-0.013821326660719
-0.015261710103397
-0.016681011998425
-0.018078281942785
-0.019452603289357
-0.020803203006776
-0.022129424105345
-0.023430688646824
-0.024706479230298
-0.025956335910583
-0.027179868598483
-0.028376936461936
-0.029547469703882
-0.030691427221327
-0.031808857741201
-0.032900108288323
-0.033965558910095
-0.035005826871982
-0.036021653969487
-0.037013970621798
-0.037984024693569
-0.038933023010647
-0.039862920182442
-0.040775117004556
-0.041672558918043
-0.042556699017094
-0.043431793278849
-0.044299216822408
-0.045164730531645
-0.046029636892791
-0.046901007874325
-0.047780275921427
-0.048674409454493
-0.049584223450021
-0.050508122908593
-0.051431132494928
-0.052282394675636
0.008330543282672
0.0065934754130238
0.0046843604639292
0.0028010590483503
0.001007508034039
-0.0007213889003928
-0.0024259711343873
-0.0041241775284865
-0.0058140529937937
-0.0074883649895389
-0.0091422519642248
-0.010773614956281
-0.012381732518857
-0.013966293671878
-0.015526802724055
-0.017062377365753
-0.018571937190128
-0.020054469439786
-0.021509136667281
-0.022935233459759
-0.024332147843765
-0.025699331556007
-0.027036301772331
-0.028342691468178
-0.029618362646783
-0.030863289460752
-0.032077492280246
-0.033261173367411
-0.034414785324633
-0.035538910404727
-0.036634272051593
-0.037701988137894
-0.038743063634441
-0.039759368631095
-0.040752100781166
-0.041724194848877
-0.042676901894079
-0.043614692535295
-0.044538573218951
-0.045455219057646
-0.046365001846872
-0.047277403149558
-0.048191955817884
-0.0491209395564
-0.050063298876924
-0.051032513941928
-0.052026296666383
-0.053050192356235
-0.054083967230928
-0.055061925300363
0.010227339337468
0.0083265408569746
0.0062217950114053
0.00415247067377
0.0021915119814788
0.00030590574603908
-0.0015527922350146
-0.0034049097736058
-0.0052471831357759
-0.0070706635390118
-0.0088697111769803
-0.010642157370985
-0.012387379223155
-0.014105057968602
-0.015794559065357
-0.017454805129015
-0.019084539337697
-0.020682615808318
-0.022248097244132
-0.023780194911497
-0.025278229646396
-0.026741604491459
-0.028169793502081
-0.029562331074667
-0.030918954845144
-0.032239866898699
-0.033525090592122
-0.034774913248903
-0.035989844839209
-0.037170698616033
-0.038318245428442
-0.039434042381758
-0.040519079383739
-0.041575979163036
-0.042605822344809
-0.043612693693783
-0.044597600916909
-0.045566704310716
-0.046520536593082
-0.047468446982893
-0.048409726302876
-0.0493581836135
-0.05031111784113
-0.051287370691046
-0.052282518283375
-0.053318886472898
-0.054390025458119
-0.055511778163679
-0.056658643170368
-0.057773065210581
0.012273945248537
0.010199513985634
0.0078853329134269
0.005617782048674
0.0034789934551612