/*--------------------------------*- C++ -*----------------------------------*\
| =========                 |                                                 |
| \\      /  F ield         | OpenFOAM: The Open Source CFD Toolbox           |
|  \\    /   O peration     | Version:  2112                                  |
|   \\  /    A nd           | Website:  www.openfoam.com                      |
|    \\/     M anipulation  |                                                 |
\*---------------------------------------------------------------------------*/
FoamFile
{
    version     2.0;
    format      ascii;
    arch        "LSB;label=32;scalar=64";
    class       volVectorField;
    location    "9.7";
    object      U;
}
// * * * * * * * * * * * * * * * * * * * * * * * * * * * * * * * * * * * * * //

dimensions      [0 1 -1 0 0 0 0];

internalField   nonuniform List<vector> 
22000
(
(1.0000009766834 -2.5567301957058e-05 0)
(1.0000264406895 -7.6961158493237e-05 0)
(1.0000754782195 -0.00012821846340972 0)
(1.0001492225279 -0.00017927829794971 0)
(1.0002481024507 -0.00023010293209639 0)
(1.0003720269942 -0.0002806684110786 0)
(1.0005206997824 -0.00033093933220249 0)
(1.0006938218996 -0.00038086247935578 0)
(1.0008911452122 -0.00043035726920968 0)
(1.0011124570006 -0.0004793661803519 0)
(1.001357531188 -0.00052781938983069 0)
(1.0016261253328 -0.00057567335808021 0)
(1.0019179288739 -0.00062278789978923 0)
(1.0022325786726 -0.00066904491349155 0)
(1.0025695736361 -0.00071416410472837 0)
(1.0029283627964 -0.00075803963747352 0)
(1.0033082156477 -0.00080033440484532 0)
(1.0037084527515 -0.00084117247329518 0)
(1.0041281727303 -0.00088013517639088 0)
(1.0045667232456 -0.00091775618751261 0)
(1.0050230670831 -0.00095321577479471 0)
(1.005496729171 -0.0009877649222192 0)
(1.0059864199941 -0.0010195028931054 0)
(1.0064920168444 -0.001051267319117 0)
(1.0070116775059 -0.0010786874779089 0)
(1.0075460061254 -0.0011083227404271 0)
(1.0080920532122 -0.0011301528449079 0)
(1.0086519537286 -0.0011593385480374 0)
(1.0092205699331 -0.0011727698874969 0)
(1.0098031979453 -0.0012053772313464 0)
(1.000000436595 -7.5358419221282e-05 0)
(1.0000260297091 -0.00022698894793097 0)
(1.0000756406233 -0.00037843730674298 0)
(1.0001503376714 -0.00052946481843401 0)
(1.000250595368 -0.00067989113872383 0)
(1.0003763899576 -0.00082960733451889 0)
(1.0005274681453 -0.00097850517191186 0)
(1.0007035616132 -0.0011264385311927 0)
(1.0009044372392 -0.0012731772051964 0)
(1.0011299061444 -0.0014185462594682 0)
(1.0013797420285 -0.0015623272999154 0)
(1.0016537224571 -0.0017043755075055 0)
(1.0019515085014 -0.0018442686996973 0)
(1.0022727685173 -0.0019816508134324 0)
(1.0026169402554 -0.0021157001662046 0)
(1.0029835570444 -0.0022460993824718 0)
(1.0033717650908 -0.0023718653539744 0)
(1.0037810806531 -0.0024933444823645 0)
(1.0042103241929 -0.0026093201789894 0)
(1.0046592645624 -0.0027213196301133 0)
(1.0051262344348 -0.0028269728488107 0)
(1.0056116749516 -0.0029298710050512 0)
(1.0061129057924 -0.0030245375411511 0)
(1.0066318235062 -0.0031191194431244 0)
(1.0071635465319 -0.0032010618481585 0)
(1.0077131314222 -0.0032891777245679 0)
(1.0082710147199 -0.0033547600724995 0)
(1.0088490968944 -0.0034412048746952 0)
(1.0094278837843 -0.0034824773445636 0)
(1.0100341041576 -0.0035782372056173 0)
(1.000000482802 -0.00012348524178587 0)
(1.000027279612 -0.00037203390021365 0)
(1.0000791111653 -0.00062061309278816 0)
(1.0001570417168 -0.00086876889269104 0)
(1.0002615317003 -0.0011160761653821 0)
(1.0003925467359 -0.0013622810490713 0)
(1.000549829205 -0.0016072159100211 0)
(1.0007331331286 -0.0018506920376037 0)
(1.0009422495324 -0.0020923629370502 0)
(1.001177030845 -0.0023319271593475 0)
(1.0014372504135 -0.0025689746614977 0)
(1.0017227067723 -0.0028032150310442 0)
(1.0020330037643 -0.0030339228671123 0)
(1.0023678457573 -0.0032605255186208 0)
(1.0027265677892 -0.0034817028263663 0)
(1.0031088385644 -0.0036969908294612 0)
(1.0035136141038 -0.0039047896704041 0)
(1.0039407402271 -0.0041057072584646 0)
(1.0043885917496 -0.0042976814637226 0)
(1.0048576452178 -0.0044832616836163 0)
(1.0053451818575 -0.0046583960641486 0)
(1.0058531959815 -0.0048291301693468 0)
(1.00637662431 -0.0049861503861735 0)
(1.0069208537454 -0.0051432635062791 0)
(1.0074756728702 -0.0052791477085435 0)
(1.0080540085029 -0.0054257524413707 0)
(1.0086344038548 -0.0055343045752969 0)
(1.0092464560381 -0.0056785434504502 0)
(1.0098441480932 -0.0057462455942901 0)
(1.0104942322361 -0.0059067490095025 0)
(1.0000005248945 -0.00017114990903118 0)
(1.0000287222274 -0.00051547479724472 0)
(1.0000832645379 -0.00086014418351798 0)
(1.0001653129875 -0.0012044957621346 0)
(1.0002753564417 -0.0015477734035232 0)
(1.0004133418689 -0.0018895302594522 0)
(1.0005789843371 -0.0022295777348568 0)
(1.0007720537772 -0.0025677664978895 0)
(1.0009923713261 -0.0029036852407002 0)
(1.0012398510034 -0.0032368932627531 0)
(1.001514270416 -0.0035667226523096 0)
(1.001815461111 -0.0038926707294332 0)
(1.0021429468405 -0.0042136743987172 0)
(1.0024964837263 -0.0045289799041883 0)
(1.0028752614297 -0.0048368319304809 0)
(1.0032791444446 -0.0051367264614753 0)
(1.003706821555 -0.0054264861526772 0)
(1.0041586150628 -0.0057070525229017 0)
(1.0046322693314 -0.0059754299500134 0)
(1.0051292793204 -0.0062352555649281 0)
(1.0056454301948 -0.0064805621967781 0)
(1.006184941929 -0.0067200684491696 0)
(1.0067393527871 -0.0069401606781033 0)
(1.0073190426025 -0.0071609293603783 0)
(1.0079061962672 -0.0073512655962413 0)
(1.0085249897568 -0.0075577737437397 0)
(1.0091370084887 -0.0077092477559484 0)
(1.0097971325035 -0.0079133131598266 0)
(1.0104215505334 -0.0080060912539033 0)
(1.0111341399217 -0.0082347636629802 0)
(1.0000005768579 -0.00021865638861588 0)
(1.0000304105933 -0.00065826641048943 0)
(1.0000881300225 -0.0010987215585483 0)
(1.000175028534 -0.0015391244068891 0)
(1.0002916449962 -0.0019782687445419 0)
(1.0004379130524 -0.002415455342223 0)
(1.0006135173445 -0.0028505228261136 0)
(1.0008182498171 -0.0032834608737312 0)
(1.0010519723312 -0.0037138560053346 0)
(1.0013146821466 -0.0041411154017213 0)
(1.0016061685024 -0.0045642368865214 0)
(1.0019263135222 -0.0049824281263161 0)
(1.0022745464654 -0.0053942452193254 0)
(1.0026506999578 -0.0057987915642866 0)
(1.0030537853324 -0.0061939426154053 0)
(1.0034839300321 -0.0065792758379252 0)
(1.0039394870416 -0.0069520720051436 0)
(1.0044214041728 -0.0073136953901596 0)
(1.0049266222415 -0.0076600994610126 0)
(1.0054579609996 -0.0079961049962614 0)
(1.006009289276 -0.0083135247382328 0)
(1.0065877059566 -0.0086240529200678 0)
(1.0071803896636 -0.0089091584974304 0)
(1.0078041548784 -0.0091960567733125 0)
(1.008431430534 -0.0094424854484057 0)
(1.0091008522798 -0.0097117442583043 0)
(1.00975225863 -0.00990703559421 0)
(1.0104729634436 -0.010174626450978 0)
(1.0111307066076 -0.010291710491499 0)
(1.0119225275507 -0.01059423358215 0)
(1.0000006362368 -0.00026617521942654 0)
(1.0000322624352 -0.00080091861758593 0)
(1.0000934652252 -0.0013372500209686 0)
(1.0001856927065 -0.001874006396101 0)
(1.0003095467846 -0.002409390382783 0)
(1.0004649525823 -0.0029423778336288 0)
(1.0006515671896 -0.0034728868023445 0)
(1.0008692178654 -0.0040011581357518 0)
(1.0011178237708 -0.004526846927563 0)
(1.0013974912187 -0.0050491935070539 0)
(1.0017080323513 -0.0055667746226018 0)
(1.0020494009801 -0.0060784205679223 0)
(1.0024209224433 -0.0065822568589442 0)
(1.0028225349664 -0.0070772870691028 0)
(1.003253045636 -0.0075610897044816 0)
(1.0037129163312 -0.0080334621866802 0)
(1.0042001061232 -0.0084911800497149 0)
(1.0047163396333 -0.0089361363275712 0)
(1.0052575979376 -0.0093630934286254 0)
(1.0058283264005 -0.0097781775160833 0)
(1.0064200876911 -0.010170618198621 0)
(1.0070434866948 -0.010555457191479 0)
(1.0076804430132 -0.010908504371986 0)
(1.0083555693468 -0.011265117218927 0)
(1.0090295241355 -0.011570236343753 0)
(1.0097584150683 -0.011906311498506 0)
(1.0104558554928 -0.012147162320031 0)
(1.0112482750722 -0.012483393538949 0)
(1.0119450334681 -0.012624559693448 0)
(1.0128312903398 -0.01300840367624 0)
(1.0000007009557 -0.00031372051093656 0)
(1.0000341781266 -0.000943464797055 0)
(1.0000989839848 -0.001575808551898 0)
(1.0001967416976 -0.0022092939270309 0)
(1.0003281279597 -0.0028413828315747 0)
(1.0004930651851 -0.0034706490119035 0)
(1.0006911882446 -0.004097146904981 0)
(1.0009223757124 -0.0047214906513454 0)
(1.0011866234373 -0.0053434824194199 0)
(1.0014841751707 -0.0059621826968628 0)
(1.0018148809278 -0.0065756566668292 0)
(1.002178791279 -0.007182265625966 0)
(1.0025751243095 -0.0077796529252318 0)
(1.0030039580301 -0.0083667709854381 0)
(1.003463877685 -0.008940979835459 0)
(1.0039557552634 -0.0095024491069907 0)
(1.0044771092439 -0.010047487407381 0)
(1.0050305928784 -0.010578636888901 0)
(1.0056110900036 -0.011089312626823 0)
(1.0062249634868 -0.011587090070904 0)
(1.006861116009 -0.012058208776049 0)
(1.0075342520183 -0.012521485512145 0)
(1.0082202081323 -0.012946232365057 0)
(1.008952669451 -0.013377103855722 0)
(1.009678671741 -0.013744381786355 0)
(1.0104745856954 -0.014152439166721 0)
(1.0112236899577 -0.014441427461695 0)
(1.0120976875655 -0.014852707261547 0)
(1.0128384605971 -0.01501837343735 0)
(1.0138330311835 -0.015492618062961 0)
(1.000000768482 -0.00036116362079 0)
(1.0000360583219 -0.0010855132196601 0)
(1.0001044012498 -0.0018137580801714 0)
(1.0002076114994 -0.0025441195126276 0)
(1.0003464519167 -0.0032731679299781 0)
(1.0005208495312 -0.0039989983906577 0)
(1.0007304247473 -0.0047218636856771 0)
(1.0009751254946 -0.0054428808374594 0)
(1.001255045885 -0.0061620840668965 0)
(1.0015705976087 -0.0068783443569717 0)
(1.0019216871591 -0.0075891252501996 0)
(1.0023084907038 -0.0082922276251779 0)
(1.0027301220784 -0.008984762316202 0)
(1.003186837921 -0.0096656849776399 0)
(1.0036769930239 -0.010332221165583 0)
(1.0042019483959 -0.010985075921802 0)
(1.0047587484438 -0.011620131304157 0)
(1.0053511254848 -0.01224071136316 0)
(1.0059727516967 -0.012838716770281 0)
(1.0066321863988 -0.013423335839396 0)
(1.0073153633495 -0.013977378589471 0)
(1.0080416391667 -0.014523909964682 0)
(1.0087800356861 -0.01502483081565 0)
(1.0095744737574 -0.015535354729605 0)
(1.0103567142895 -0.015969074179402 0)
(1.0112259145876 -0.01645530392729 0)
(1.0120313427593 -0.016795862117991 0)
(1.0129955138663 -0.017289836862271 0)
(1.0137847047828 -0.017481199169515 0)
(1.0149001245129 -0.018056476917613 0)
(1.0000008369178 -0.00040826447394602 0)
(1.0000378060281 -0.0012263430965827 0)
(1.0001094359309 -0.0020499051225549 0)
(1.0002177450162 -0.0028768297061174 0)
(1.0003635926188 -0.0037026490766983 0)
(1.0005469191547 -0.0045249064661919 0)
(1.0007673406254 -0.0053441187338234 0)
(1.001024893896 -0.0061620396501289 0)
(1.0013197942511 -0.0069790253622704 0)
(1.0016526527945 -0.0077937522622033 0)
(1.0020234540709 -0.0086029964742648 0)
(1.0024325315766 -0.0094039110208276 0)
(1.0028789043769 -0.0101930282819 0)
(1.0033630502788 -0.010969366975191 0)
(1.0038830947654 -0.01173010772326 0)
(1.0044409681168 -0.01247666157214 0)
(1.0050332220447 -0.013204528211194 0)
(1.0056648135192 -0.013917955641134 0)
(1.0063281155426 -0.014607159955977 0)
(1.0070341436169 -0.015283121756593 0)
(1.0077656085376 -0.015924764367636 0)
(1.0085470161168 -0.016559908194272 0)
(1.0093399575378 -0.017142082444322 0)
(1.0101996158847 -0.017738396063292 0)
(1.0110410658033 -0.018243611758208 0)
(1.0119884521788 -0.018815167974814 0)
(1.0128538771798 -0.019211629620091 0)
(1.013915464135 -0.01979715180549 0)
(1.0147569062612 -0.02001634878413 0)
(1.0160042516214 -0.020704785355032 0)
(1.0000009037318 -0.0004547032116344 0)
(1.0000393282735 -0.0013649981024136 0)
(1.0001138204604 -0.0022826570093141 0)
(1.0002266109435 -0.0032052012450776 0)
(1.0003786652492 -0.0041269864663645 0)
(1.000569947272 -0.0050449365945689 0)
(1.0008000803768 -0.0059599004980967 0)
(1.0010692103681 -0.0068744036371868 0)
(1.0013776969101 -0.0077892172742621 0)
(1.001726381542 -0.0087028236713059 0)
(1.0021153506282 -0.0096112337496852 0)
(1.0025451279573 -0.010510872324651 0)
(1.0030146538432 -0.01139765532743 0)
(1.0035246710619 -0.012270728460586 0)
(1.004073087968 -0.013127324287361 0)
(1.0046624814745 -0.013969731740205 0)
(1.0052889100298 -0.014793122018925 0)
(1.005958689303 -0.015602809791404 0)
(1.0066628389136 -0.016387167939367 0)
(1.0074150607602 -0.017159152577255 0)
(1.0081946553174 -0.017893348640656 0)
(1.0090317023537 -0.018622852842969 0)
(1.0098798860356 -0.019291852999854 0)
(1.0108065057333 -0.019980717444079 0)
(1.0117088328062 -0.02056320868555 0)
(1.0127378194206 -0.021228127494969 0)
(1.0136658604235 -0.021685774519121 0)
(1.0148306206013 -0.022372855884526 0)
(1.0157275784754 -0.022623140638946 0)
(1.0171163191049 -0.023438274681108 0)
(1.0000009669648 -0.00050010923220827 0)
(1.0000405403917 -0.0015003740229696 0)
(1.0001173089713 -0.0025101679660719 0)
(1.000233720887 -0.0035266447967186 0)
(1.0003908561184 -0.0045428572012033 0)
(1.0005887123502 -0.0055550496393322 0)
(1.000826932847 -0.0065644715070799 0)
(1.0011057913523 -0.0075745526503115 0)
(1.001425814162 -0.0085865741934039 0)
(1.0017881017072 -0.0095988305821774 0)
(1.002192867622 -0.010606501205202 0)
(1.002640857097 -0.011605211236486 0)
(1.003130955811 -0.012590234578581 0)
(1.0036642104529 -0.013560907708712 0)
(1.0042383416904 -0.014514625565086 0)
(1.0048566343428 -0.015454714067145 0)
(1.0055146866692 -0.016376097847436 0)
(1.0062202701998 -0.017285273980513 0)
(1.0069630603045 -0.018168666048189 0)
(1.0077596055955 -0.019041345814968 0)
(1.0085857221671 -0.019873179553574 0)
(1.0094773583364 -0.020703000956528 0)
(1.0103800201675 -0.02146478017725 0)
(1.0113737235204 -0.022253399534192 0)
(1.0123372074067 -0.022919619410169 0)
(1.0134495440533 -0.023686634169174 0)
(1.0144416531455 -0.024211739728906 0)
(1.0157136660665 -0.025011395324728 0)
(1.0166687767422 -0.025297418741704 0)
(1.018206623594 -0.026254141800125 0)
(1.0000010243561 -0.00054408889303472 0)
(1.0000413684396 -0.0016313007452129 0)
(1.0001196885638 -0.0027304757143829 0)
(1.0002386507725 -0.0038383961815963 0)
(1.0003994563828 -0.0049467000143157 0)
(1.0006021469207 -0.0060509005127142 0)
(1.0008463977766 -0.0071527149101217 0)
(1.0011326269568 -0.0082566046182046 0)
(1.0014615478308 -0.0093644549704935 0)
(1.0018345429206 -0.010474384580957 0)
(1.0022519806952 -0.011580689043917 0)
(1.0027148512982 -0.012678132526814 0)
(1.0032220235456 -0.013761337533754 0)
(1.003774867253 -0.01482989010042 0)
(1.0043709828031 -0.015881478955493 0)
(1.0050143682022 -0.016920594962653 0)
(1.0057002868694 -0.017942055423183 0)
(1.0064379308496 -0.018953576875569 0)
(1.0072158394592 -0.019939668698585 0)
(1.0080533034238 -0.020917484786093 0)
(1.0089229555632 -0.021852064201524 0)
(1.0098664309286 -0.022788112372481 0)
(1.0108214469866 -0.02364895731657 0)
(1.0118804830464 -0.024544683888216 0)
(1.0129041834508 -0.025301806508354 0)
(1.0140995143438 -0.026179939585189 0)
(1.015156170449 -0.02677993178521 0)
(1.0165370109167 -0.027703551743538 0)
(1.0175523104186 -0.028031433915513 0)
(1.019245202264 -0.02914619070125 0)
(1.0000010741445 -0.0005862505465597 0)
(1.0000417527841 -0.0017566168135044 0)
(1.0001207854863 -0.0029416261593538 0)
(1.0002410544658 -0.0041376909995534 0)
(1.0004038872317 -0.0053349390932076 0)
(1.000609377054 -0.0065281100851277 0)
(1.0008572421047 -0.007719453235514 0)
(1.001148056817 -0.0089145801943937 0)
(1.0014827393049 -0.010116071815052 0)
(1.0018629700427 -0.0113218887222 0)
(1.0022893013272 -0.012525404518575 0)
(1.0027629805589 -0.013720474816087 0)
(1.0032829121599 -0.014901074795672 0)
(1.0038507806352 -0.016067098332595 0)
(1.0044641801971 -0.017216672845555 0)
(1.0051277457839 -0.018355552184059 0)
(1.0058366683304 -0.019478649833372 0)
(1.006601293218 -0.020594824729017 0)
(1.0074096149952 -0.021686941450983 0)
(1.0082829523056 -0.022773846200237 0)
(1.0091920170756 -0.023816250376859 0)
(1.0101825154118 -0.024864003147289 0)
(1.011186925962 -0.025830673421007 0)
(1.0123067835837 -0.026840347544098 0)
(1.0133898912716 -0.027696967807028 0)
(1.0146635295508 -0.028694030138605 0)
(1.0157881485603 -0.02937987713834 0)
(1.0172703990802 -0.030434652972059 0)
(1.0183591373147 -0.030821146118449 0)
(1.0201995036238 -0.03210327655352 0)
(1.0000011148824 -0.00062622809867141 0)
(1.0000416512028 -0.00187523954699 0)
(1.0001204759828 -0.0031417887545786 0)
(1.0002406826731 -0.0044219242346565 0)
(1.0004037270255 -0.0057041867409362 0)
(1.0006097596907 -0.0069825100247291 0)
(1.0008585496222 -0.0082597350928399 0)
(1.0011508354637 -0.009542731211512 0)
(1.0014877524726 -0.010834860315614 0)
(1.0018712891268 -0.012133947981899 0)
(1.0023022036644 -0.013432421277222 0)
(1.0027820125885 -0.014723195845954 0)
(1.0033096960594 -0.015999612859423 0)
(1.0038872616667 -0.017261942013231 0)
(1.0045123712529 -0.018508878589344 0)
(1.0051902838346 -0.019747568073508 0)
(1.0059162648823 -0.020973155636176 0)
(1.0067017155585 -0.022195700165899 0)
(1.0075344240785 -0.023396498463596 0)
(1.0084373559628 -0.024596005586934 0)
(1.009380164756 -0.025750801732361 0)
(1.0104114385731 -0.026915443202842 0)
(1.0114606262922 -0.027994565391096 0)
(1.0126350691632 -0.029124851419558 0)
(1.0137751720431 -0.030090000858064 0)
(1.0151204708966 -0.031213691083361 0)
(1.0163146172369 -0.031997650349815 0)
(1.017890418846 -0.033191359975988 0)
(1.0190600204619 -0.0336520706583 0)
(1.021043832335 -0.035114734913235 0)
(1.0000011454959 -0.0006636967916355 0)
(1.0000410414818 -0.0019862137240578 0)
(1.0001186945664 -0.0033293412973421 0)
(1.0002373981443 -0.0046887728897058 0)
(1.0003987334477 -0.0060514045835412 0)
(1.0006029107463 -0.0074103422473823 0)
(1.000849755527 -0.0087690720707406 0)
(1.0011401747483 -0.010135814434773 0)
(1.0014755270187 -0.011514790438478 0)
(1.0018581123877 -0.012903717176583 0)
(1.0022889085985 -0.014294065046633 0)
(1.002769710546 -0.015677792304825 0)
(1.0032996025403 -0.017047631758125 0)
(1.0038809307778 -0.018404297639911 0)
(1.0045114713018 -0.019747178748338 0)
(1.0051971263349 -0.021084940733986 0)
(1.005933306949 -0.022413079730636 0)
(1.006732489554 -0.023742954327048 0)
(1.0075823638769 -0.025054311396542 0)
(1.0085075562763 -0.026369298879955 0)
(1.0094768299933 -0.027640301307885 0)
(1.0105416317648 -0.028926707804572 0)
(1.0116286822722 -0.030124112936901 0)
(1.012850964143 -0.031382028868047 0)
(1.0140420438998 -0.032463646458149 0)
(1.0154533054492 -0.03372334470227 0)
(1.0167124730125 -0.03461547689124 0)
(1.0183778347229 -0.035960053926586 0)
(1.0196260700429 -0.036506718543288 0)
(1.021751561577 -0.038165984368029 0)
(1.0000011650823 -0.00069838343140663 0)
(1.0000399176661 -0.0020887394075832 0)
(1.000115427713 -0.0035029191216005 0)
(1.0002311667562 -0.0049362718512901 0)
(1.0003888326752 -0.0063740093736855 0)
(1.0005886959437 -0.0078083963598156 0)
(1.0008306417019 -0.0092436092275246 0)
(1.0011157442697 -0.010689296368819 0)
(1.0014455845831 -0.012150606284133 0)
(1.0018227711181 -0.013625176385259 0)
(1.0022485061453 -0.015103523930465 0)
(1.0027248674685 -0.016576646566718 0)
(1.0032510623847 -0.018036703930893 0)
(1.0038297886258 -0.019484924569191 0)
(1.0044589691125 -0.020921508071967 0)
(1.0051451664703 -0.02235676522768 0)
(1.0058839878938 -0.023786655167277 0)
(1.0066890071288 -0.025223940793113 0)
(1.0075478942124 -0.026646864074305 0)
(1.0084869695292 -0.028079334814584 0)
(1.0094742251473 -0.029469572249897 0)
(1.010564011779 -0.030881843973917 0)
(1.0116805009397 -0.032202769785261 0)
(1.0129423483616 -0.033594755781157 0)
(1.0141765625772 -0.034800481949907 0)
(1.0156463456213 -0.036205262251106 0)
(1.0169639647155 -0.037215715327108 0)
(1.0187130357674 -0.038723117735929 0)
(1.020035670873 -0.039368181641502 0)
(1.0222986565066 -0.041239833354562 0)
(1.0000011732965 -0.00073007640191234 0)
(1.0000382913931 -0.0021822005933444 0)
(1.0001107064819 -0.0036614625220262 0)
(1.0002220416184 -0.005162880253522 0)
(1.0003740984157 -0.0066699587629218 0)
(1.0005672050176 -0.0081741152330636 0)
(1.000801306859 -0.0096802514273003 0)
(1.0010776402312 -0.011199502596629 0)
(1.0013979997472 -0.012738001892848 0)
(1.0017652903102 -0.014293336471736 0)
(1.002180934809 -0.015855085633602 0)
(1.0026472918159 -0.017413295861068 0)
(1.0031637030236 -0.018959595842463 0)
(1.0037332221216 -0.020495798208519 0)
(1.0043539430024 -0.02202301790506 0)
(1.005033091267 -0.023553331831263 0)
(1.0057665121652 -0.025083260435599 0)
(1.0065688778202 -0.026627088578759 0)
(1.0074279121801 -0.028161601421025 0)
(1.0083716397752 -0.02971256760051 0)
(1.0093673991817 -0.031224096548612 0)
(1.0104724806169 -0.032765391818948 0)
(1.0116086698099 -0.034214241780474 0)
(1.0129003710608 -0.035745941085716 0)
(1.014168246423 -0.037082843876646 0)
(1.0156873885668 -0.038641190441353 0)
(1.0170549523472 -0.039779931750945 0)
(1.0188799027164 -0.041461685717108 0)
(1.0202704574523 -0.042218119469459 0)
(1.0226641414249 -0.044317112739422 0)
(1.0000011702782 -0.00075863148677457 0)
(1.0000361880296 -0.0022661844486072 0)
(1.0001046032093 -0.0038042496538578 0)
(1.0002101583064 -0.0053675274398275 0)
(1.0003547426888 -0.0069378094100566 0)
(1.0005387380863 -0.0085056652156141 0)
(1.0007621473537 -0.010076746789282 0)
(1.0010263566381 -0.011663715794099 0)
(1.0013333594053 -0.013273735716506 0)
(1.0016863368125 -0.014904372130308 0)
(1.0020869229915 -0.016544292735658 0)
(1.0025377438529 -0.018182612731446 0)
(1.0030382839029 -0.019810477164202 0)
(1.0035919404445 -0.021430349282833 0)
(1.0041970033742 -0.02304434889838 0)
(1.0048613323413 -0.024666432127101 0)
(1.0055810598729 -0.026293762669436 0)
(1.0063719123241 -0.027942275805093 0)
(1.0072217548378 -0.029587346000872 0)
(1.0081602809611 -0.031256730818869 0)
(1.0091542987604 -0.032890492735987 0)
(1.010264050695 -0.034562870310888 0)
(1.0114090830094 -0.036142984638603 0)
(1.0127196452657 -0.037819047669389 0)
(1.0140102412814 -0.039293341914401 0)
(1.0155679954442 -0.041012972507121 0)
(1.0169752157144 -0.042289516999888 0)
(1.018866319374 -0.044156545233387 0)
(1.0203160776632 -0.045037279908935 0)
(1.0228308975034 -0.047377230199006 0)
(1.0000011563029 -0.00078397043369628 0)
(1.0000336446302 -0.0023404772461703 0)
(1.0000972239836 -0.0039308950210484 0)
(1.000195721196 -0.0055496175864736 0)
(1.0003310953969 -0.0071767289648064 0)
(1.0005037744471 -0.0088019556859506 0)
(1.0007138143582 -0.01043171581632 0)
(1.0009627324704 -0.012080218399694 0)
(1.0012527008645 -0.013755691488883 0)
(1.0015871447877 -0.015455703381686 0)
(1.0019678984401 -0.017168047604894 0)
(1.0023978287894 -0.018880932664144 0)
(1.0028765750509 -0.020585075460941 0)
(1.0034078433461 -0.02228364182848 0)
(1.0039901512865 -0.023979842856184 0)
(1.0046319252438 -0.025689595825595 0)
(1.0053296466551 -0.027410805417987 0)
(1.0060999929259 -0.029161146671291 0)
(1.006931089614 -0.030914685982092 0)
(1.007854174543 -0.032701262854603 0)
(1.0088357294902 -0.034457010634777 0)
(1.0099387908278 -0.036261332666187 0)
(1.0110810117189 -0.037974772250151 0)
(1.0123982299295 -0.039798744934362 0)
(1.0136994175062 -0.041415354835464 0)
(1.0152833765228 -0.043303214123595 0)
(1.0167184434893 -0.044726163334984 0)
(1.0186644007905 -0.046789092992922 0)
(1.0201625454513 -0.047806835476095 0)
(1.0227866900983 -0.050399659713442 0)
(1.0000011316021 -0.00080607390080278 0)
(1.0000306992154 -0.0024050408407651 0)
(1.0000886878042 -0.0040413106885103 0)
(1.0001789744764 -0.0057089841193389 0)
(1.000303567874 -0.0073864548583327 0)
(1.0004629270358 -0.0090626080041133 0)
(1.0006571533894 -0.010744628877972 0)
(1.0008878692204 -0.012448273668245 0)
(1.0011574074647 -0.014182863458163 0)
(1.0014693916327 -0.015945991666575 0)
(1.0018258506081 -0.017724632548635 0)
(1.0022298436943 -0.019506107230799 0)
(1.0026811929068 -0.021280775311747 0)
(1.0031838403312 -0.023052514757169 0)
(1.0037365877297 -0.024825732763147 0)
(1.0043482921854 -0.026618313444815 0)
(1.0050158995064 -0.028429069422437 0)
(1.0057568095848 -0.030277401604781 0)
(1.0065596710508 -0.032136306026641 0)
(1.007456867948 -0.034037684272255 0)
(1.0084151382778 -0.035913970894716 0)
(1.0094995269131 -0.037849892553844 0)
(1.0106270168614 -0.039697309906167 0)
(1.0119374542026 -0.04167164528765 0)
(1.0132365041833 -0.043433827725725 0)
(1.0148321841642 -0.045495863247933 0)
(1.0162820084883 -0.047072290847834 0)
(1.0182690848008 -0.049341517737843 0)
(1.0198043764583 -0.050508567707409 0)
(1.0225221831826 -0.053366699150406 0)
(1.0000010948228 -0.00082497872117811 0)
(1.0000273926479 -0.0024599953344365 0)
(1.0000791160975 -0.0041356535052907 0)
(1.0001601647147 -0.0058457801381225 0)
(1.0002725903368 -0.0075671281381786 0)
(1.0004168682719 -0.0092877558675166 0)
(1.0005931322491 -0.011015598106024 0)
(1.0008030591186 -0.012767916690377 0)
(1.0010491210313 -0.014555134527268 0)
(1.0013350735461 -0.016374885425215 0)
(1.0016631620822 -0.018213407858502 0)
(1.0020365611682 -0.020057148818999 0)
(1.0024553569004 -0.021896219767442 0)
(1.0029235790617 -0.023735149938294 0)
(1.0034404498731 -0.025579702967033 0)
(1.0040149579959 -0.02744957982638 0)
(1.0046447886917 -0.029344817690207 0)
(1.0053475512524 -0.0312862731574 0)
(1.0061130178756 -0.033246438787234 0)
(1.0069738204524 -0.035258829368771 0)
(1.0078981629489 -0.037252987865544 0)
(1.0089514530469 -0.03931843658904 0)
(1.010052336841 -0.041299116378929 0)
(1.0113415602942 -0.043424354262956 0)
(1.0126259386809 -0.045333699956409 0)
(1.0142162855708 -0.047574144018119 0)
(1.0156686109226 -0.049307430266959 0)
(1.0176752142105 -0.051793317382949 0)
(1.0192411489696 -0.053115258938229 0)
(1.0220195544039 -0.056252067446565 0)
(1.000001041976 -0.00084080087309321 0)
(1.0000238036983 -0.0025056736581678 0)
(1.0000687218972 -0.004214377863641 0)
(1.0001396612687 -0.0059604861732473 0)
(1.0002387072188 -0.0077191902105214 0)
(1.0003663658974 -0.0094777679993676 0)
(1.0005228259772 -0.011244899965792 0)
(1.0007097577452 -0.013039297275815 0)
(1.0009297316484 -0.014872479784667 0)
(1.0011865192035 -0.016742119192892 0)
(1.0014826258146 -0.018633802810022 0)
(1.0018212194906 -0.020533079904425 0)
(1.0022028262046 -0.022429936996465 0)
(1.0026313027132 -0.024329404415381 0)
(1.0031066138928 -0.02623885635857 0)
(1.00363727829 -0.028179476367895 0)
(1.0042223972743 -0.030153105777696 0)
(1.0048786164286 -0.032181354621067 0)
(1.0055983271978 -0.034237377381867 0)
(1.0064121754849 -0.036354896354841 0)
(1.0072928575392 -0.038462648937469 0)
(1.0083019516078 -0.040652534141876 0)
(1.0093653882839 -0.042763768544691 0)
(1.0106174819644 -0.045036374058925 0)
(1.0118759311122 -0.047092098467152 0)
(1.0134422490573 -0.049510353360007 0)
(1.0148859402303 -0.051400831376691 0)
(1.0168885105236 -0.054104866182631 0)
(1.0184711424278 -0.055582255032431 0)
(1.0212863421766 -0.058995009299111 0)
(1.0000009702253 -0.0008538121020052 0)
(1.0000201237498 -0.0025428896014777 0)
(1.000057966106 -0.0042786476614375 0)
(1.0001182188315 -0.0060545202455124 0)
(1.0002029708729 -0.0078442435349888 0)
(1.0003127689227 -0.0096343403121724 0)
(1.0004478874763 -0.011434156149499 0)
(1.0006099463851 -0.013263779118184 0)
(1.0008015813006 -0.015135900299759 0)
(1.0010264696519 -0.017048335401219 0)
(1.0012874594246 -0.018986191880489 0)
(1.0015875953175 -0.02093411438455 0)
(1.0019280573769 -0.022882019070905 0)
(1.0023121542348 -0.024835133355235 0)
(1.0027410180742 -0.026802644566219 0)
(1.0032218062427 -0.028806717591344 0)
(1.0037561698936 -0.030851837938207 0)
(1.004357846762 -0.032959331205836 0)
(1.0050246928855 -0.035104969787462 0)
(1.0057809535082 -0.037320137193033 0)
(1.0066104054084 -0.039536748239294 0)
(1.0075608950176 -0.041843692543034 0)
(1.0085799871055 -0.044082791084776 0)
(1.009774700406 -0.046495855043093 0)
(1.0110031543874 -0.048696919460308 0)
(1.0125168065265 -0.05129016410725 0)
(1.0139572457026 -0.053334920594275 0)
(1.0159149245698 -0.056268619742038 0)
(1.0175361004345 -0.057875106988505 0)
(1.020328170178 -0.061627533056233 0)
(1.0000008584465 -0.00086452099529696 0)
(1.000016607815 -0.0025733962226561 0)
(1.0000474309557 -0.0043312862988345 0)
(1.0000966408358 -0.0061319204603677 0)
(1.0001664279079 -0.0079476428246275 0)
(1.0002574929359 -0.0097645401733873 0)
(1.0003701923689 -0.011592409176513 0)
(1.000505897297 -0.013452447249398 0)
(1.0006671115107 -0.015358558729305 0)
(1.0008573603297 -0.017308882445577 0)
(1.0010800558069 -0.019288228393271 0)
(1.0013382780276 -0.02128057048392 0)
(1.0016340835408 -0.02327599561725 0)
(1.0019700360426 -0.025279817139217 0)
(1.0023485039058 -0.027303254088371 0)
(1.0027745311971 -0.029368988330859 0)
(1.0032529033592 -0.031485052269851 0)
(1.0037928781539 -0.033671424821297 0)
(1.0044002134143 -0.03590909902004 0)
(1.0050885729761 -0.038223928926567 0)
(1.0058599410125 -0.040557418181397 0)
(1.0067366442372 -0.042986622521414 0)
(1.0077070324563 -0.045370981831756 0)
(1.0088197774175 -0.047933681459271 0)
(1.0100215980963 -0.050310439055772 0)
(1.0114385509744 -0.053097406875239 0)
(1.0128995724533 -0.055336473138895 0)
(1.014739195823 -0.058561239446251 0)
(1.0164925900824 -0.0603240666055 0)
(1.0191852788491 -0.064730564854159 0)
(1.0000005912955 -0.00087426606440288 0)
(1.0000125450177 -0.002601383530104 0)
(1.0000361874372 -0.0043807021897302 0)
(1.0000739186043 -0.0062070871859372 0)
(1.000128099862 -0.0080502434402047 0)
(1.0001997398395 -0.0098959260062604 0)
(1.0002898401815 -0.011754172924454 0)
(1.0003993602906 -0.013647552049775 0)
(1.0005304364895 -0.015591030801424 0)
(1.0006862187336 -0.017582976209443 0)
(1.0008701999433 -0.01960812149913 0)
(1.0010856587962 -0.021649582898343 0)
(1.0013354057218 -0.023697641520888 0)
(1.0016218537131 -0.02575814160379 0)
(1.0019484246103 -0.027844923903614 0)
(1.0023187284304 -0.029981528585878 0)
(1.0027395783301 -0.032180085322643 0)
(1.0032169318262 -0.034458505782122 0)
(1.0037621190664 -0.036804316077362 0)
(1.0043809829463 -0.039234512956894 0)