/*--------------------------------*- C++ -*----------------------------------*\
| =========                 |                                                 |
| \\      /  F ield         | OpenFOAM: The Open Source CFD Toolbox           |
|  \\    /   O peration     | Version:  2112                                  |
|   \\  /    A nd           | Website:  www.openfoam.com                      |
|    \\/     M anipulation  |                                                 |
\*---------------------------------------------------------------------------*/
FoamFile
{
    version     2.0;
    format      ascii;
    arch        "LSB;label=32;scalar=64";
    class       surfaceScalarField;
    location    "19.4";
    object      phi;
}
// * * * * * * * * * * * * * * * * * * * * * * * * * * * * * * * * * * * * * //

dimensions      [0 3 -1 0 0 0 0];

oriented        oriented;

internalField   nonuniform List<scalar> 
43645
(
0.39512385865595
-4.9855703330554e-06
0.39513873893843
-1.4880256548016e-05
0.39516348391827
-2.4744951759415e-05
0.39519806849593
-3.4584548604109e-05
0.39524245623387
-4.438770869389e-05
0.39529660019041
-5.4143927497848e-05
0.39536044940039
-6.3849181399019e-05
0.3954339519096
-7.3502481153814e-05
0.3955170476882
-8.3095751139611e-05
0.39560966494479
-9.26172297148e-05
0.39571171167521
-0.00010204670415776
0.39582308271702
-0.00011137101610848
0.39594365208956
-0.00012056934746766
0.39607329293889
-0.00012964082479643
0.3962118566696
-0.00013856370676342
0.3963592117096
-0.00014735501657263
0.39651518783069
-0.00015597609820267
0.39667965926402
-0.00016447141088338
0.39685241478276
-0.00017275549679448
0.39703334981006
-0.00018093500572042
0.39722217307147
-0.00018882324024966
0.39741885025209
-0.00019667715976216
0.39762293536588
-0.00020408509328743
0.39783458302602
-0.00021164763985017
0.39805301993811
-0.00021843689208675
0.3982788490999
-0.00022582914194682
0.398510568599
-0.00023171947947778
0.39874981363583
-0.00023924501757272
0.39899344717878
-0.00024363352426381
-0.00025198291991708
0.39924543011756
0.37294721853292
-9.6493233090535e-06
0.37296123457246
-2.8896253864643e-05
0.37298472043591
-4.8230772145909e-05
0.37301765178355
-6.75158531619e-05
0.37305998933308
-8.6725215618903e-05
0.37311168934221
-0.00010584389468388
0.37317270819443
-0.0001248679924635
0.37324300110518
-0.00014379535152606
0.37332251302371
-0.00016260763014026
0.37341117548419
-0.00018127965146218
0.37350889999206
-0.0001997711741508
0.37361558619129
-0.00021805717824856
0.37373111492031
-0.00023609804024524
0.37385536748943
-0.00025389335841396
0.37398820511563
-0.00027140129827631
0.37412950625152
-0.00028865611844964
0.37427911219897
-0.00030558201237163
0.37443690739411
-0.00032226657333477
0.37460269295074
-0.00033854102136495
0.37477637282406
-0.00035461484746628
0.37495766928518
-0.00037011967032253
0.37514655355732
-0.00038556140121885
0.37534259792967
-0.00040012943540234
0.37554595781493
-0.00041500749512332
0.37575589076982
-0.00042836981735459
0.37597299016053
-0.0004429285031978
0.37619581425901
-0.00045454354879291
0.37642596412797
-0.00046939485786963
0.37666043030524
-0.00047809967402737
-0.0004946611470043
0.37690310856043
0.35201549621968
-1.4247976010303e-05
0.35202927231815
-4.2672307650047e-05
0.35205225686189
-7.1215270954638e-05
0.3520844314848
-9.9690431511418e-05
0.35212575963704
-0.00012805332407168
0.35217619997817
-0.00015628419286468
0.35223571277055
-0.00018438074285474
0.35230425670211
-0.000212339241989
0.35238177794477
-0.00024012883269309
0.35246820789214
-0.00026770955963389
0.35256345848047
-0.00029502172427247
0.3526674324928
-0.00032203115325648
0.35278001658708
-0.00034868209818534
0.35290110101741
-0.00037497775323426
0.35303055705051
-0.00040085729679141
0.35316827556053
-0.00042637459461236
0.35331410902625
-0.00045141544506707
0.35346795570904
-0.00047611322370988
0.35362962570795
-0.00050021098857102
0.35379903723074
-0.00052402633900559
0.35397591603851
-0.0005469984474296
0.35416025073158
-0.00056989606394646
0.35435160817964
-0.00059148685355523
0.35455017250235
-0.00061357178814022
0.35475517766041
-0.00063337494604313
0.35496727189189
-0.00065502270540549
0.35518494432141
-0.00067221594926385
0.35540990596744
-0.00069435647525846
0.35563896544109
-0.00070715912020359
-0.00073192548020572
0.35587622980261
0.33225857038193
-1.8774360260922e-05
0.33227214696571
-5.6248851184887e-05
0.33229479263376
-9.3860898463436e-05
0.33232647843998
-0.00013137619747939
0.33236716093991
-0.00016873578443871
0.33241679998042
-0.0002059231945466
0.33247536154162
-0.00024294226610675
0.33254280884683
-0.00027978651006319
0.33261908854012
-0.00031640848978067
0.33270413018591
-0.00035275117005809
0.33279784455275
-0.00038873605669947
0.33290013698662
-0.00042432355352997
0.3330109002815
-0.00045944536040682
0.33313003513296
-0.00049411257281987
0.3332574245906
-0.00052824672341872
0.33339297471251
-0.00056192468618011
0.33353655113367
-0.00059499183666574
0.33368806925844
-0.00062763131945165
0.33384734899062
-0.00065949069236974
0.33401432638224
-0.00069100370265939
0.3341887287665
-0.00072140080422529
0.33437056722864
-0.00075173449888642
0.33455939666341
-0.00078031626151106
0.33475544051064
-0.00080961560868251
0.33495789418652
-0.0008358285955179
0.33516748674278
-0.00086461523528663
0.33538260802861
-0.00088733720890384
0.33560514653049
-0.00091689495126403
0.33583167271983
-0.00093368528471613
-0.00096695161352889
0.3360666988789
0.31361052535379
-2.3242299123394e-05
0.31362394847638
-6.9671936541176e-05
0.31364634243619
-0.00011625482088015
0.31367767251536
-0.00016270623961396
0.31371788835477
-0.00020895158753046
0.31376695071326
-0.00025498551748622
0.31382483238518
-0.0003008239033775
0.31389150279759
-0.00034645688866348
0.3139669103205
-0.00039181597982741
0.31405098351328
-0.00043682433084764
0.31414363283973
-0.00048138535212581
0.31424476770042
-0.00052545838403589
0.3143542891754
-0.00056896680614539
0.31447211137071
-0.00061193473966094
0.31459813240571
-0.00065426773081602
0.31473227751186
-0.00069606976538771
0.31487442916996
-0.00073714346855691
0.31502452440588
-0.00077772652967668
0.31518239600202
-0.00081736226340617
0.31534800247291
-0.00085661014878675
0.3155210741199
-0.00089447242690479
0.31570165019325
-0.00093231054810772
0.31588927240897
-0.00096793845339729
0.31608421327578
-0.0010045564516977
0.31628562330616
-0.0010372386022643
0.31649433157689
-0.0010733234822836
0.31670860829001
-0.0011016138983553
0.31693055685313
-0.0011388434908788
0.31715644948384
-0.0011595778927754
-0.0012017793727552
0.31739127726684
0.2960091117281
-2.7652134232686e-05
0.29602238545518
-8.2945628519689e-05
0.29604453560755
-0.00013840493803618
0.2960755237411
-0.00019369433831941
0.29611529421582
-0.00024872202809002
0.29616381053425
-0.00030350180247411
0.29622105448466
-0.00035806782120211
0.29628700389693
-0.00041240626913529
0.29636161082825
-0.00046642288027326
0.29644480470032
-0.00052001817285673
0.29653649780259
-0.00057307842526803
0.29663660630595
-0.0006255668590813
0.29674504294775
-0.00067740342055047
0.29686173926542
-0.00072863103068026
0.296986612912
-0.0007791413515975
0.29711961321701
-0.00082907004521566
0.29726064451352
-0.00087817474063425
0.29740967079178
-0.00092675278397039
0.29756654257103
-0.00097423401929455
0.29773124621161
-0.0010213137663187
0.29790351900144
-0.0010667451941409
0.2980834340677
-0.0011122255919315
0.29827052239634
-0.0011550267598901
0.29846511280059
-0.0011991468338259
0.29866630962908
-0.0012384354087926
0.29887505316067
-0.0012820669917922
0.29908948323563
-0.0013160439512932
0.29931193972415
-0.0013612999575159
0.29953836415365
-0.00138600230117
-0.0014376871090801
0.29977427191228
0.27939557236322
-3.1989946927639e-05
0.27940865779044
-9.6031023316522e-05
0.27943050156863
-0.00016024868375952
0.27946106305023
-0.00022425578784616
0.27950028286098
-0.00028794180743882
0.279548129336
-0.0003513482467838
0.2796045957252
-0.00041453418053408
0.27966967074848
-0.00047748126331223
0.27974331257176
-0.00054006467534655
0.27982545400275
-0.00060215957642967
0.27991601210549
-0.00066363650151721
0.2800149133313
-0.0007244680591808
0.28012208625964
-0.00078457632407831
0.28023748455418
-0.00084402930111344
0.28036105066484
-0.00090270743898733
0.28049276355556
-0.00096078291324671
0.28063255539765
-0.0010179665607407
0.28078042310684
-0.0010746204716096
0.28093624122651
-0.0011300521179836
0.28110002991734
-0.0011851024364319
0.28127153967618
-0.0012382549326723
0.28145088332504
-0.0012915692205821
0.28163758699981
-0.0013417304146941
0.28183204183753
-0.0013936016515347
0.28203331083853
-0.0014397043898897
0.28224245274851
-0.0014912088816856
0.28245747843472
-0.001531069617412
0.28268097624851
-0.001584797751259
0.28290854893905
-0.001613574972316
-0.0016754024303022
0.28314626428098
0.26371445068141
-3.6231149753954e-05
0.26372727581161
-0.00010885612318194
0.26374869634511
-0.00018166918690863
0.26377867111528
-0.00025423052801728
0.26381713859054
-0.00032640925331711
0.26386407389456
-0.00039828352204549
0.26391948404476
-0.00046994430274195
0.26398337111637
-0.00054136830761665
0.26405570202135
-0.00061239555385679
0.26413641584451
-0.00068287337384728
0.26422543783005
-0.0007526584621754
0.2643227086174
-0.00082173882237839
0.26442817722809
-0.00089004491146168
0.2645418244425
-0.00095767649288572
0.26466362320415
-0.0010245061787939
0.26479358792152
-0.0010907476093278
0.2649316852408
-0.0011560638594079
0.2650779513074
-0.0012208865180285
0.26523229214116
-0.0012843929321043
0.26539476809009
-0.0013475783660011
0.26556515114081
-0.0014086379644222
0.26574359987308
-0.0014700179340057
0.26592964495171
-0.0015277754747314
0.26612374507993
-0.0015877017611313
0.26632493259537
-0.00164089188684
0.26653438848108
-0.001700664748752
0.26675000647961
-0.0017466875973363
0.26697462519764
-0.0018094164507467
0.2672035197552
-0.0018424695119494
-0.0019151949091663
0.26744331225331
0.24891340547516
-4.0343908619567e-05
0.24892587498149
-0.00012132560160572
0.24894671733972
-0.0002025115172429
0.24897589239819
-0.00028340555891743
0.24901333796653
-0.00036385479466892
0.2490590376713
-0.00044398320038089
0.24911301428155
-0.00052392088727256
0.24917528545813
-0.00060363945910938
0.24924582944885
-0.00068293952025767
0.24932459456669
-0.0007616384680356
0.24941151774965
-0.00083958162228844
0.24950655774456
-0.00091677879511596
0.24960968861361
-0.00099317575912644
0.24972092310825
-0.0010689109667563
0.24984027035717
-0.0011438534076827
0.24996778586548
-0.0012182630981152
0.2501034776168
-0.0012917555918437
0.25024742722873
-0.001364836111466
0.25039958042454
-0.001436546109923
0.25056004419308
-0.0015080421167863
0.25072862201817
-0.001577215772127
0.25090552420381
-0.0016469201023559
0.25109029845919
-0.001712549713046
0.25128347518169
-0.0017808784665319
0.25148407234273
-0.0018414890308863
0.2516933929047
-0.0019099852935656
0.25190923554066
-0.0019625302161668
0.25213468028923
-0.0020348611822362
0.25236470599392
-0.0020724952001018
-0.0021569550240074
0.25260646612665
0.23494303595687
-4.4292281043461e-05
0.23495504025967
-0.00013332987845075
0.23497512682325
-0.00022259805488783
0.23500325755773
-0.00031153626774107
0.2350393708728
-0.00039996808458354
0.23508346025653
-0.00048807255944079
0.23513556572142
-0.00057602632812106
0.2351957222421
-0.00066379595629114
0.23526392161845
-0.00075113887380165
0.23534012405568
-0.00083784088306032
0.23542428143716
-0.00092373898228871
0.23551637414716
-0.0010088714842294
0.23561640544691
-0.0010932070387307
0.23572442431595
-0.0011769298162019
0.23584048127436
-0.0012599103471801
0.23596467794629
-0.0013424597516162
0.23609707026217
-0.0014241478898858
0.23623779103758
-0.0015055568693936
0.23638683423358
-0.001585589288942
0.23654435957527
-0.001665567441714
0.23671021331739
-0.0017430694978605
0.23688466298877
-0.001821369757454
0.23706728865474
-0.0018951753629764
0.23725869509321
-0.0019722848889386
0.23745790746901
-0.002040701390774
0.23766634638599
-0.0021184241945191
0.23788174785535
-0.0021779316695614
0.23810741413849
-0.0022605274495033
0.23833808001757
-0.002303161063833
-0.0024002581444848
0.2385813831547
0.22175671681269
-4.8039281198425e-05
0.2217681409382
-0.00014475398002612
0.22178728613834
-0.00024174323110168
0.22181411642464
-0.00033836653033563
0.22184857175739
-0.0004344233940877
0.22189065640603
-0.0005301571852426
0.22194042842856
-0.00062579832836386
0.22199794106121
-0.00072130856713295
0.22206320119894
-0.00081639899034014
0.22213618299741
-0.00091082266086083
0.22221685594086
-0.0010044119057201
0.22230522486033
-0.0010972403842118
0.22240132558252
-0.0011893077421011
0.22250524660623
-0.0012808508215824
0.22261708415644
-0.0013717478796801
0.22273698994067
-0.0014623655185665
0.22286507372042
-0.0015522316529059
0.22300152424721
-0.0016420073797737
0.22314639204684
-0.0017304570726208
0.22329989482375
-0.001819070202889
0.22346193362621
-0.0019051082849211
0.22363283775108
-0.0019922738670144
0.22381223718278
-0.0020745747796116
0.22400081195973
-0.0021608596507975
0.22419762107687
-0.002237510492977
0.22440419400676
-0.0023249971093704
0.22461824687718
-0.0023919845250155
0.22484327421666
-0.0024855547741271
0.22507384038187
-0.002533727214672
-0.0026444124888993
0.22531799474194
0.20931044220021
-5.1549510476063e-05
0.20932117535383
-0.00015548711137619
0.20933919900848
-0.00025976686346742
0.20936447899809
-0.00036364649783806
0.2093969575498
-0.00046690192407314
0.20943665009114
-0.000569849705206
0.20948363270776
-0.00067278092407316
0.20953797702777
-0.00077565286663305
0.20959970582561
-0.00087812776822317
0.20966880854245
-0.00097992535817009
0.20974527412307
-0.0010808774674083
0.20982913364392
-0.0011810998865851
0.20992045773439
-0.0012806318146852
0.21001937638965
-0.0013797694593958
0.21012603456695
-0.0014784060401057
0.21024063654976
-0.0015769674848765
0.21036335061576
-0.0016749457029168
0.21049442471145
-0.00177308145978
0.21063397349153
-0.0018700058374494
0.21078227648995
-0.0019673731862536
0.21093930170355
-0.0020621334838039
0.2111054432477
-0.0021584153965535
0.21128040032799
-0.0022495318455288
0.21146492674367
-0.0023453860521153
0.21165814646129
-0.002430730196387
0.21186168408324
-0.002528534717062
0.21207328904665
-0.0026035894742709
0.21229660639451
-0.0027088721079505
0.21252612675466
-0.0027632475612725
-0.0028884971692757
0.21277021144983
0.19756267758259
-5.4790543623029e-05
0.19757262156107
-0.00016543106912043
0.19758935994303
-0.00027650522464196
0.1976128609147
-0.00038714744886352
0.19764306949158
-0.00049711048063151
0.1976800120185
-0.00060679221209074
0.19772378188898
-0.00071655077491806
0.19777446852211
-0.000826339480464
0.19783211068302
-0.00093576991030484
0.19789671354103
-0.0010445281977205
0.19796828630672
-0.0011524502151683
0.19804688689394
-0.0012597004562704
0.19813262161903
-0.0013663665227607
0.19822566234564
-0.0014728101693776
0.19832620417798
-0.0015789478563362
0.19843450464765
-0.0016852679387687
0.19855079363604
-0.0017912346759986
0.19867537963747
-0.0018976674461685
0.19880844773831
-0.0020030739236571
0.19895034121729
-0.0021092666507974
0.19910110669817
-0.0022128989505677
0.19926120402936
-0.0023185127137281
0.19943042190132
-0.0024187497037122
0.19960958340789
-0.0025245475449406
0.19979791277153
-0.0026190595464359
0.19999711012455
-0.0027277320564487
0.20020502264781
-0.0028115019840214
0.20042538865503
-0.0029292381017912
0.20065275004912
-0.0029906089424302
-0.0031313946467558
0.20089564754074
0.18647422216512
-5.7735320530631e-05
0.1864832942683
-0.0001745031528078
0.18649860760204
-0.00029181853882483
0.18652013303861
-0.00040867286596563
0.18654781876782
-0.00052479619065263
0.18658170137661
-0.00064067480190576
0.18662189004554
-0.00075673942522657
0.1866684903742
-0.00087293979079201
0.18672155613247
-0.00098883565065194
0.1867811078038
-0.0011040798514531
0.18684717480484
-0.001218517199068
0.18691984117177
-0.0013323668064044
0.18699924825622
-0.0014457735908902
0.18708560846278
-0.0015591703599394
0.18717916667955
-0.0016725060575864
0.18728023231619
-0.0017863335601815
0.18738909808939
-0.0019001004344044
0.18750613213419
-0.0020147014764335
0.18763159465958
-0.0021285364348909
0.18776589214789
-0.0022435641251554
0.18790916056041
-0.0023561673494452
0.18806192350556
-0.0024712756453677
0.18822407974347
-0.0025809059283506
0.18839651296887
-0.0026969807571205
0.18857858616146
-0.0028011327259646
0.18877204705565
-0.0029211929375673
0.18897491994541
-0.0030143748608225
0.18919095328448
-0.0031452714280461
0.18941495227424
-0.0032146079197929
-0.003371794719372
0.18965535236046
0.17600807654576
-6.0363089118114e-05
0.17601621235539
-0.00018263894401365
0.17602999051107
-0.00030559667597518
0.17604938453181
-0.00042806686823982
0.17607434575824
-0.00054975739884934
0.17610491978997
-0.00067124881559768
0.17614122941126
-0.0007930490288055
0.17618339411661
-0.00091510447867617
0.17623148098015
-0.0010369224971114
0.1762855243151
-0.0011581231696176
0.17634557233697
-0.001278565204575
0.17641173335125
-0.0013985278046206
0.17648418179853
-0.0015182220225277
0.17656316750801
-0.0016381560540803
0.17664898296063
-0.001758321495274
0.17674198595325
-0.0018793365381551
0.17684253131392
-0.0020006457808216
0.176951043363
-0.002123213511517
0.17706786041239
-0.0022453534706332
0.17719344856194
-0.0023691522612844
0.17732804293386
-0.0024907617082456
0.17747222513396
-0.0026154578325071
0.17762602509043
-0.002734705872104
0.17779037310906
-0.0028613287631085
0.17796481265144
-0.0029755722558705
0.17815109753424
-0.0031074778078939
0.17834752911285
-0.003210806427057
0.17855766795525
-0.0033554102582022
0.17877714009595
-0.0034340800485988
-0.0036082210115274
0.17901356640121
0.16612931886895
-6.2659961748124e-05
0.16613647416579
-0.00018979422326839
0.16614864003942
-0.00031776253191916
0.16616579231947
-0.00044521913066066
0.16618788515891
-0.00057185022089153
0.16621497149774
-0.00069833513724428
0.16624718497885
-0.00082526249305028
0.16628465608963
-0.00095257557285182
0.16632746280871
-0.0010797291999822
0.16637565109256
-0.0012063114375597
0.16642928568845
-0.0013321997849585
0.16648849593211
-0.0014577380330731
0.16655348584387
-0.0015832119194784
0.16662453823895
-0.0017092084346229
0.16670198927121
-0.0018357725133753
0.16678623952242
-0.0019635867754638
0.16687770326078
-0.0020921095056634
0.16697685484311
-0.0022223650805687
0.16708411194445
-0.0023526105590556
0.16719999298084
-0.0024850332849889
0.16732484152185
-0.0026156102368911
0.16745928603454
-0.0027499023330164
0.16760351106139
-0.0028789308870438
0.16775847172721
-0.0030162894171258
0.16792394109879
-0.0031410416158084
0.16810163668121
-0.003285173378697
0.16829022425234
-0.0033993939866385
0.16849305358794
-0.0035582395823478
0.16870641375573
-0.0036474402051722
-0.0038390923527523
0.16893728510943
0.15680498784191
-6.4619098002343e-05
0.15681113926767
-0.00019594563211946
0.15682165001558
-0.00032827326283119
0.1568364976817
-0.00046006677990651
0.15685563862741
-0.00059099115000781
0.15687913114399
-0.00072182763750236
0.15690711661593
-0.00085324794906805
0.15693973323953
-0.0009851921808887
0.15697706700221
-0.0011170629475435
0.15701917273238
-0.0012484171529664
0.15706612858597
-0.001379155624236
0.15711808088978
-0.0015096903228884
0.15717525847891
-0.0016403894950029
0.15723797117602
-0.00177192111841
0.1573065932622
-0.0019043945865937
0.15738156113809
-0.002038554638656
0.15746334350876
-0.0021738918639784
0.15755245668963
-0.0023114782493411
0.15764939644199
-0.0024495502996729
0.15775472311554
-0.0025903599470646
0.1578688966798
-0.0027297837900046
0.15799257446346
-0.0028735801057872
0.15812612348684
-0.0030124798998047
0.15827048652024
-0.0031606524400699
0.15842572930329
-0.0032962843885728
0.15859346597248
-0.0034529100376388
0.15877279409133
-0.003578722095249
0.15896691717852
-0.0037523626592989
0.15917241012164
-0.0038529331381355
-0.004062877155282
0.15939619493568
0.1480039723858
-6.6240538551317e-05
0.14800911701923
-0.00020109024896014
0.148017963361
-0.00033711958800146
0.14803049017067
-0.00047259357323331
0.1480466552686
-0.00060715623204273
0.14806652007756
-0.00074169243101222
0.14809023036182
-0.00087695821845246
0.14811792856856
-0.0010128903732713
0.14814970554874
-0.001148839913961
0.14818562198631
-0.0012843335772646
0.14822576573589
-0.0014192993610761
0.14827029550942
-0.0015542200840849
0.14831945902753
-0.0016895530012044
0.14837358657557
-0.0018260486548394
0.14843308281687
-0.0019638908166488
0.14849841242707
-0.0021038842378676
0.14857009051495
-0.0022455699412225
0.14864866766061
-0.0023900553846352
0.1487347110141
-0.0025355936431574
0.14882881447159
-0.002684463394857
0.1489315539355
-0.0028325232445882
0.14904360040702
-0.0029856265682886
0.14916552083304
-0.0031344003171276
0.14929820837987
-0.0032933399784229
0.14944208885108
-0.0034401648514979
0.14959856643761
-0.0036093876159221
0.14976737287413
-0.0037475285234788
0.14995136049007
-0.0039363502668248
0.15014741622568
-0.004048988865148
-0.0042779782638479
0.15036251734432
0.1396969073174
-6.7530580488017e-05
0.13970106115823
-0.00020524407269843
0.1397082651374
-0.00034432355011707
0.13971849861964
-0.00048282703891333
0.13973171990141
-0.00062037749800577
0.139747991154
-0.00075796366854931
0.13976745919855
-0.00089642624880762
0.13979026731445
-0.0010356984757825
0.13981650796303
-0.0011750805499914
0.13984624453601
-0.0013140701383811
0.13987957056055
-0.0014526253744301
0.13991665239025
-0.0015913019031141
0.13995774997068
-0.0017306505714528
0.14000320735631
-0.0018715060306448
0.14005345014953
-0.0020141336004276
0.14010896397989
-0.0021593980590554
0.14017029809894
-0.0023069040514623
0.14023803223661
-0.0024577895137934
0.14031278967756
-0.0026103510759917
0.14039519855502
-0.0027668722645553
0.14048593031222
-0.0029232549944523
0.14058568023304
-0.0030853764821529
0.14069518476206
-0.0032439048396053
0.14081530939265
-0.0034134646027702
0.14094680279521
-0.0035716582480498
0.14109087678214
-0.0037534615969298
0.14124795573549
-0.0039046074708321
0.14142010771515
-0.0041085022402107
0.14160590874074
-0.0042347898839841
-0.0044827411103744
0.14181067159566
0.13185607457643
-6.850040984058e-05
0.13185926966168
-0.00020843913844088
0.1318648810109
-0.0003499348797405
0.13187288787511
-0.00049083388432232
0.1318832476019
-0.00063073720713211
0.13189602050208
-0.00077073655227594
0.13191135136695
-0.00091175709849758
0.13192938130974
-0.0010537284045523
0.13195020159326
-0.0011959008206179
0.13197387513629
-0.0013377436694603
0.13200049694394
-0.001479247170986
0.13203023578519
-0.0016210407338994
0.13206335701764
-0.0017637717940238
0.13210021143208
-0.0019083604356137
0.13214123587146
-0.0020551580307544
0.13218692935023
-0.0022050915290863
0.13223786143226
-0.0023578361251437
0.13229463624011
-0.0025145643136495
0.13235791212131
-0.002673626949632
0.132428358447
-0.0028373185831425
0.13250670451631
-0.0030016010571905
0.13259370567796
-0.0031723776377381
0.13269019407669
-0.0033403932328072
0.13279709286313
-0.0035203633841382
0.1329153280448
-0.003689893425021
0.13304608885206
-0.003884222399682
0.13319029765723
-0.004048816271465
0.13334953072019
-0.0042677352982933
0.13352414221718
-0.0044094013753818
-0.0046751609219394
0.13371656203613
0.12445531043101
-6.9164479503977e-05
0.12445759014845
-0.00021071883048215
0.12446168119885
-0.00035402590412467
0.12446756108
-0.00049671374036333
0.12447518431876
-0.00063836042232056
0.12448460665527
-0.00078015886690482
0.12449596746216
-0.00092311788520945
0.12450940292201
-0.001067163845757
0.12452500142507
-0.0012114993064432
0.12454282282161
-0.0013555650499293
0.12456296003677
-0.001499384371072
0.12458557840717
-0.0016436590899953
0.12461094251954
-0.0017891358927327
0.12463940124902
-0.0019368191519212
0.12467139458592
-0.0020871513549451
0.12470742414647
-0.0022411210773237
0.1247480693417
-0.0023984813085117
0.12479394867417
-0.002560443634715
0.12484573933827
-0.0027254176028808
0.12490415180287
-0.0028957310375167
0.12496993594853
-0.0030673851933302
0.12504394516661
-0.0032463868470511
0.12512700740602
-0.0034234554642236
0.12522026207736
-0.0036136180482031
0.12532453177253
-0.0037941631135556
0.12544139248575
-0.0040010831067303
0.12557149763815
-0.004178921417903
0.12571701284518
-0.0044132504991593
0.12587870264257
-0.0045710911659535
-0.0048549934212182
0.12605853515057
0.11746992148641
-6.9542156322077e-05
0.11747133816698
-0.00021213547499232
0.11747399898889
-0.00035668668864952
0.11747787603045
-0.0005005907453769
0.11748292035738
-0.0006434047144834
0.11748918201834
-0.00078642049512456
0.11749679085411
-0.00093072669024543
0.11750587514163
-0.0010762481043506
0.11751651913261
-0.001222143270081
0.11752877760191
-0.0013678234931733
0.11754273861702
-0.0015133453611922
0.11755855809684
-0.001659478545671
0.117576495244
-0.0018070730164363
0.1175968876292
-0.0019572115142273
0.11762017408068
-0.0021104377840591
0.1176468429707
-0.0022677899454936
0.11767748124795
-0.0024291195644626
0.11771269715036
-0.0025956595164803
0.11775319221718
-0.0027659126498079
0.11779968408607
-0.0029422228874181
0.11785295260887
-0.0031206536981825
0.11791391765011
-0.0033073518714874
0.11798336868571
-0.0034929064841907
0.11806275023131
-0.0036929995793327
0.11815251410484
-0.0038839269737112
0.11825532962945
-0.0041038986189382
0.11837012629849
-0.0042937180752845
0.11850202021947
-0.0045451444088307
0.11864704437866
-0.0047161153136671
-0.0050245830274272
0.11881663399823
0.11087660787839
-6.9665092701353e-05
0.11087723202905
-0.00021275957511596
0.11087857355884
-0.00035802816605386
0.11088059393026
-0.00050261106520394
0.11088324142147
-0.00064605215601483
0.11088655938555
-0.00078973841171254
0.11089066665517
-0.00093483391448691
0.11089568622681
-0.0010812676324649
0.11090169732327
-0.0012281543245919
0.11090874689462
-0.0013748730238113
0.1109169143979
-0.0015215128247965
0.11092633981253
-0.0016689039214265
0.11093727175477
-0.0018180049205072
0.1109500284013
-0.0019699681231882
0.11096504550544
-0.0021254548512669
0.11098278250764
-0.0022855269113666
0.11100383971528
-0.0024501767365435
0.11102878038565
-0.0026206001521391
0.11105836350859
-0.0027954957391593
0.11109323169684
-0.0029770910433866
0.11113429777963
-0.0031617197502735
0.11118235188353
-0.0033554059464099
0.11123838464847
-0.0035489392219794
0.11130373307602
-0.00375834798151
0.11137888867164
-0.0039590825457249
0.11146731475107
-0.0041923246765557
0.11156634413689
-0.0043927474409694
0.11168588223683
-0.0046646824899911
0.11181027780479
-0.0048405108636841
-0.005186074752365
0.11197176954911
0.10465337708946
-6.957615584718e-05
0.10465331089977
-0.00021269331973283
0.10465345571472
-0.00035817291401892
0.10465378710204
-0.00050294238654346
0.10465425637084
-0.00064652136073696
0.10465487621899
-0.00079035819789204
0.10465574933293
-0.00093570696839697
0.10465700551207
-0.0010825237532329
0.10465873034376
-0.0012298790992272
0.10466096546607
-0.0013771080901239
0.1046637763448
-0.0015243236483547
0.10466727895115
-0.0016724064733212
0.10467170276191
-0.0018224286774467
0.10467734132771
-0.0019756066358164
0.10468462067808
-0.0021327341491202
0.10469396038947
-0.0022948665710324
0.10470597223822
-0.0024621885345024
0.10472114985236
-0.0026357777167133
0.10474034413901
-0.0028146899777798
0.10476403552183
-0.0030007823801404
0.10479343474775
-0.0031911189324429
0.10482886121398
-0.0033908323715087
0.10487214187947
-0.0035922198490053
0.10492323649342
-0.0038094425596469
0.10498481999651
-0.004020666015695
0.10505675670328
-0.0042642613531048
0.10514176016756
-0.0044777508779575
0.10524449388655
-0.0047674161843405
0.1053581902703
-0.0049542072250462
-0.005333777811882
0.10550589335353
0.098779414198002
-6.9272015975319e-05
0.098778771390917
-0.00021205043690313
0.098777799807231
-0.00035720125388964
0.098776608186593
-0.0005017506905253
0.098775162244553
-0.00064507534498322
0.09877335884291
-0.00078855472422176
0.098771299331452
-0.00093364738638235
0.098769112751763
-0.0010803371040978
0.098766901712565
-0.0012276679914082
0.098764720854149
-0.0013749271636441
0.098762618072668
-0.0015222207992647
0.098760681559701
-0.0016704698931115
0.098759114025931
-0.0018208610768637
0.098758182909477
-0.0019746754530028
0.098758292080087
-0.0021328432540028
0.098759821528098
-0.0022963959540831
0.098763367681208
-0.00246573462377
0.098769357035792
-0.0026417670089449
0.09877869417627
-0.0028240270580291
0.098791706887642
-0.0030137950340249
0.098809893288631
-0.0032093052793517
0.098833045167489
-0.0034139842000304
0.098864030447178
-0.0036232050822476
0.098900926415223
-0.003846338485078
0.098949975651603
-0.0040697152134028
0.099004480188502
-0.0043187658556458
0.099078138870084
-0.0045514095295882
0.09915433786603
-0.00484361515418
0.099260156022201
-0.0050600253576689
0.099425228499333
-0.0054988502648202
0.39459695072371
0.0046484794125985
0.39010775326104
0.0044891974808111
0.3857823595805
0.0043253936983405
0.38162517557677
0.0041571840214809
0.37764046351214
0.0039847120823581
0.37383234266861
0.0038081208613993
0.37020478338401
0.0036275593025458
0.36676159973961
0.0034431836625602
0.36350644335491
0.0032551564029787
0.36044279884083
0.0030636445325973
0.35757398000799
0.0028688188514908
0.3549031265375
0.0026708534893954
0.35243320051499
0.0024699260415482
0.35016698262191
0.0022662179124047
0.34810706803932
0.0020599146020288
0.34625586241821
0.0018512056408437
0.34461557785689
0.0016402845811748
0.3431882290599
0.0014273488171417
0.34197562947478
0.001212599605393
0.34097938754778
0.00099624194758518
0.34020090238494
0.00077848518354756
0.33964135825363
0.00055954415236288
0.3393017126233
0.00033964565151412
0.33918264097286
0.00011907167198161
0.33928480114437
-0.00010216014980599
0.33960859392452
-0.00032379275808481
0.34015402555485
-0.00054543160810346
0.3409209618494
-0.00076693627196876
0.34190904991934
-0.00098808804722166
0.34311770853766
-0.0012086585952747
0.3445461260394
-0.0014284174786207