/*--------------------------------*- C++ -*----------------------------------*\
| =========                 |                                                 |
| \\      /  F ield         | OpenFOAM: The Open Source CFD Toolbox           |
|  \\    /   O peration     | Version:  2112                                  |
|   \\  /    A nd           | Website:  www.openfoam.com                      |
|    \\/     M anipulation  |                                                 |
\*---------------------------------------------------------------------------*/
FoamFile
{
    version     2.0;
    format      ascii;
    arch        "LSB;label=32;scalar=64";
    class       surfaceScalarField;
    location    "8.8";
    object      phi;
}
// * * * * * * * * * * * * * * * * * * * * * * * * * * * * * * * * * * * * * //

dimensions      [0 3 -1 0 0 0 0];

oriented        oriented;

internalField   nonuniform List<scalar> 
43645
(
0.39512389529645
-5.0222802900694e-06
0.39513892849625
-1.5033256751376e-05
0.39516396457009
-2.5036135395222e-05
0.39519898517646
-3.502066995828e-05
0.39524396433675
-4.4979224144431e-05
0.3952988331423
-5.4868868797938e-05
0.39536345997092
-6.4626890682972e-05
0.39543765963436
-7.4199724165764e-05
0.39552121569575
-8.3556120579637e-05
0.39561391075651
-9.2695118488057e-05
0.39571553630523
-0.00010162560484392
0.39582590395962
-0.00011036770905236
0.39594482616
-0.00011892225345254
0.39607212629261
-0.00012730018428417
0.39620760262984
-0.00013547638740478
0.39635106676562
-0.00014346418466856
0.39650228192981
-0.00015121521171087
0.39666105847664
-0.00015877659325253
0.39682712177481
-0.00016606334340575
0.39700031198876
-0.00017319025831335
0.39718028235188
-0.00017997040650864
0.3973669260059
-0.00018664369677117
0.39755971911501
-0.00019279315111058
0.3977586810835
-0.00019896201007553
0.39796295303398
-0.00020427199153525
0.39817295650261
-0.00021000350948051
0.39838722223076
-0.00021426576864076
0.39860721353996
-0.00021999134912103
0.39883012922694
-0.00022291572587459
-0.0002295960951792
0.39905972528267
0.37294727573158
-9.7433561347965e-06
0.37296153564909
-2.9293266074851e-05
0.37298543092353
-4.8931503273781e-05
0.37301894365932
-6.8533499084977e-05
0.37306204217087
-8.8077827803375e-05
0.37311465905666
-0.000107485845088
0.37317667442363
-0.00012664234620659
0.37324792265067
-0.00014544803783073
0.37332820995497
-0.00016384350939374
0.37341733982861
-0.00018182507466933
0.37351512047325
-0.00019940632986282
0.37362137541583
-0.0002166227300575
0.37373592609479
-0.00023347300870985
0.37385860296499
-0.00024997712892295
0.37398921208114
-0.0002660855759891
0.37412757246152
-0.00028182463581329
0.37427345709031
-0.00029709990948038
0.37442668435374
-0.00031200392425518
0.37458699083734
-0.00032636989307253
0.37475422284843
-0.00034042233437285
0.37492804494959
-0.00035379257142364
0.37510835064444
-0.00036694945459541
0.37529462684804
-0.00037906941675734
0.37548688271279
-0.00039121793639603
0.37568427270699
-0.00040166204662274
0.37588719346582
-0.00041292432897513
0.37609420405418
-0.00042127641720116
0.37630672519634
-0.00043251255064633
0.37652202529474
-0.00043821588134424
-0.00045137460523396
0.37674380374626
0.35201559108399
-1.4437006415682e-05
0.35202972740335
-4.3429681783627e-05
0.35205331566579
-7.2519862282666e-05
0.35208631873193
-0.00010153666072196
0.35212869286751
-0.00013045205693729
0.35218036689494
-0.00015915996398897
0.35224123020518
-0.00018750574553327
0.35231113919255
-0.00021535711203367
0.35238992836468
-0.00024263276588378
0.35247742793515
-0.00026932472722763
0.35257346598376
-0.00029544445804913
0.35267787838782
-0.00032103521147005
0.35279049330454
-0.00034608800034259
0.35291114589747
-0.00037062979470705
0.35303964679583
-0.00039458654494124
0.35317582179855
-0.00041799970734218
0.35331945124142
-0.00044072941918062
0.35347036350457
-0.00046291625280365
0.35362830233145
-0.00048430878373542
0.35379312477242
-0.00050524483810395
0.35396449681361
-0.00052516467413498
0.35414232305088
-0.00054477575276781
0.35432607822705
-0.00056282465294134
0.354515787486
-0.00058092725512654
0.35471056424349
-0.00059643886333779
0.3549108414013
-0.00061320154609339
0.35511507383672
-0.00062550891164619
0.35532477953303
-0.00064221830549404
0.35553697974876
-0.00065041615342944
-0.00067001673473777
0.35575562181985
0.33225871233883
-1.9105465807694e-05
0.33227281619276
-5.7533621033687e-05
0.33229633116101
-9.6034916210359e-05
0.33232918506777
-0.00013439065233989
0.33237130936665
-0.00017257643901534
0.33242262387224
-0.00021047455100843
0.33248302754786
-0.0002479095004653
0.33255240240612
-0.00028473204764499
0.33263061612622
-0.00032084656108426
0.33271753011057
-0.0003562387846694
0.33281299515347
-0.00039090957174071
0.33291686062122
-0.00042490074802894
0.33302896110388
-0.00045818854956785
0.33314913587463
-0.00049080463018154
0.33327719936625
-0.00052265009920686
0.33341298434311
-0.00055378474528154
0.33355627840057
-0.00058402353591521
0.33370692119879
-0.00061355910905235
0.33386466290551
-0.00064205054701705
0.33402937283372
-0.00066995482200431
0.33420071438357
-0.0006965062785497
0.33437860521361
-0.00072266663686136
0.33456249736091
-0.00074671685350224
0.33475243808572
-0.00077086803302743
0.33494747747002
-0.00079147830021264
0.33514810660601
-0.00081383073477188
0.33535263270426
-0.00083003506231201
0.33556273962393
-0.0008523252771194
0.33577511797323
-0.00086279455267162
-0.00088905303747613
0.33599415422396
0.31361072668043
-2.377483884086e-05
0.31362488336787
-7.1690385131064e-05
0.31364847078945
-0.0001196224145163
0.31368138190238
-0.0001673018410148
0.31372352068123
-0.00021471529189243
0.31377479598057
-0.00026174992257649
0.31383511734551
-0.00030823093550342
0.31390439621026
-0.00035401098051408
0.31398253848611
-0.00039898890279276
0.31406944154535
-0.00044314190775584
0.31416498253705
-0.0004864506249941
0.31426902680329
-0.00052894507387616
0.31438141710246
-0.0005705789061314
0.31450199849236
-0.00061138607571328
0.3146305911008
-0.0006512427612892
0.31476703732118
-0.00069023101784728
0.31491113491179
-0.00072812117701473
0.31506273887553
-0.00076516312220545
0.3152216091304
-0.00080092084997727
0.31538763251346
-0.00083597825248358
0.31556047170702
-0.00086934551858869
0.3157400635505
-0.00090225852655758
0.31592583385665
-0.00093248720528254
0.31611786037079
-0.0009628945928943
0.31631511504777
-0.00098873302267168
0.31651816505518
-0.0010168807880653
0.31672513246605
-0.0010370025190729
0.31693791130785
-0.0010651041647487
0.31715277111183
-0.0010776544009296
-0.0011109304504957
0.31737464847815
0.29600938123792
-2.8454283956501e-05
0.29602362345953
-8.5932677567765e-05
0.29604733586532
-0.00014333489108543
0.296080374871
-0.00020034091655922
0.29612261600806
-0.0002569564972368
0.2961739572917
-0.00031309127291123
0.29623432077853
-0.00036859448708789
0.29630365114092
-0.00042334140590808
0.29638189747057
-0.00047723529338837
0.29646899810332
-0.00053024259964808
0.29656486092784
-0.00058231350652535
0.29666937088551
-0.00063345508680503
0.29678238215346
-0.00068359022728299
0.29690374884849
-0.00073275282233857
0.29703330050194
-0.00078079446444335
0.29717089345183
-0.0008278240161105
0.2973163404104
-0.00087356818233653
0.29746951724307
-0.00091834000061753
0.29763019881195
-0.00096160246332131
0.29779829583159
-0.0010040753159425
0.29797347426057
-0.0010445239904273
0.29815569724872
-0.0010844815572951
0.29834436441676
-0.0011211544152693
0.2985395932125
-0.0011581234306368
0.29874026836591
-0.0011894082177283
0.29894704968766
-0.0012236621517933
0.29915784595148
-0.0012477988247472
0.2993747988898
-0.0012820571447722
0.2995936889082
-0.0012965444595126
-0.0013373270988212
0.29982008551392
0.27939591690959
-3.3136733585809e-05
0.2794102274416
-0.00010024327272312
0.279434035803
-0.00016714331542809
0.27946716103038
-0.0002334662059751
0.27950944991657
-0.00029924544394874
0.27956079039666
-0.00036443181203203
0.27962111923706
-0.00042892338468882
0.27969041788462
-0.0004926401090527
0.27976868300041
-0.0005555004627937
0.27985589841936
-0.00061745807057049
0.27995200713606
-0.00067842227317783
0.2800569177439
-0.00073836574300113
0.2801704999594
-0.00079717248919444
0.28029262128618
-0.00085487419408202
0.28042312565882
-0.00091129888029162
0.2805618889435
-0.00096658734280788
0.28070874515029
-0.0010204244296514
0.28086359797327
-0.0010731928632603
0.28102624438354
-0.0011242489120866
0.28119662700742
-0.0011744579778224
0.28137442179564
-0.0012223188158049
0.28155962721316
-0.0012696870118433
0.2817516206544
-0.001313147893024
0.28195057040314
-0.0013570732160757
0.28215527127501
-0.001394109126076
0.28236649292957
-0.0014348838432842
0.28258191367285
-0.0014632196049461
0.28280395681496
-0.0015041003238314
0.28302786617204
-0.0015204538523165
-0.0015693806970764
0.28325991973202
0.26371487526986
-3.7802608129673e-05
0.26372919738832
-0.00011456544866506
0.26375300780523
-0.00019095378960247
0.26378608862487
-0.00026654708212959
0.26382825843833
-0.0003414153125922
0.26387939624888
-0.00041556967654634
0.26393945562441
-0.00048898281259572
0.26400845775373
-0.00056164228941146
0.26408645051286
-0.0006334932712457
0.26417346717752
-0.00070447478314347
0.26426949004486
-0.00077444518665221
0.26437445567174
-0.00084333141464033
0.26448825409514
-0.00091097095559695
0.26461077136656
-0.00097739150724605
0.26474187183195
-0.001042399385796
0.26488145743194
-0.0011061729818589
0.26502939095566
-0.0011683579910134
0.26518561191606
-0.0012294138605198
0.26534994797819
-0.0012885850099172
0.26552238291711
-0.0013468929519575
0.26570261144191
-0.0014025473749405
0.26589067785808
-0.0014577534621489
0.26608594472756
-0.0015084147960226
0.26628864379333
-0.0015597723154457
0.26649748283169
-0.0016029481976343
0.26671335924982
-0.0016507602949002
0.26693371317395
-0.0016835735623368
0.26716127956754
-0.0017316667505504
0.26739073443514
-0.0017499087517679
-0.001807766478935
0.2676291201828
0.24891391304965
-4.2423016170138e-05
0.24892815994429
-0.00012881239414925
0.24895182925811
-0.00021462315404321
0.24898466780426
-0.00029938567825372
0.24902646734055
-0.00038321489767643
0.24907709942255
-0.00046620180631497
0.24913653626965
-0.00054841970607597
0.24920484104746
-0.00062994711245606
0.24928211556616
-0.00071076783368362
0.24936844566455
-0.00079080492408505
0.24946385666306
-0.00086985622613154
0.24956831726591
-0.00094779205729886
0.249681742796
-0.0010243965239294
0.24980404332032
-0.0010996920687477
0.24993511002962
-0.0011734661308194
0.25007487786016
-0.0012459408472348
0.25022324639765
-0.0013167265620681
0.25038019941418
-0.0013863669099589
0.25054560476579
-0.0014539903933924
0.25071949728087
-0.0015207854985132
0.25090160105197
-0.001584651176711
0.25109201756711
-0.0016481700078319
0.25129010552671
-0.0017065027855893
0.2514961731804
-0.0017658399992171
0.25170885056372
-0.0018156256106485
0.25192917836015
-0.0018710881213218
0.25215436055381
-0.0019087557857233
0.25238746784096
-0.0019647740673097
0.25262259499721
-0.0019850359364699
-0.002052765431482
0.25286759391902
0.23494362724069
-4.6962740435676e-05
0.23495769096548
-0.00014287616475169
0.23498104176378
-0.00023797399798914
0.23501339376108
-0.00033173772068721
0.2350545139666
-0.00042433514737771
0.23510426819212
-0.00051595607522903
0.23516264875802
-0.00060680031421921
0.23522976209822
-0.00069706049402865
0.23530576548498
-0.00078677126055263
0.23539079931801
-0.00087583879628929
0.23548493483194
-0.00096399177789291
0.2355881765511
-0.0010510338133443
0.2357004698104
-0.0011366898187732
0.23582175403356
-0.0012209763265698
0.23595195365079
-0.0013036657814273
0.2360910434124
-0.0013850306414648
0.23623896776092
-0.0014646509420514
0.23639576301926
-0.0015431621991805
0.23656134715029
-0.0016195745543062
0.2367358156391
-0.0016952540168348
0.23691893422201
-0.0017677697883155
0.2371108717856
-0.0018401075999429
0.23731099962805
-0.0019066306559138
0.23751971130968
-0.0019745517087202
0.23773558251537
-0.0020314968437099
0.23795980319517
-0.0020953088286161
0.23818936285438
-0.0021383154719914
0.23842768004437
-0.0022030912840768
0.23866825413594
-0.0022256100536103
-0.0023042916173618
0.23891978029421
0.22175739001223
-5.1383001370812e-05
0.22177114990455
-0.00015663609782817
0.22179398477436
-0.00026080890842369
0.22182557934776
-0.00036333233434992
0.22186567840568
-0.0004644342447718
0.22191414372355
-0.0005644214319665
0.2219709885977
-0.00066364522630246
0.22203636291958
-0.00076243485318706
0.22211047958206
-0.0008608879592528
0.22219353420609
-0.00095889345584209
0.22228564573288
-0.0010561033390729
0.22238685735268
-0.0011522454667998
0.22249714852685
-0.0012469810254612
0.22261649283571
-0.0013403206672532
0.22274485385532
-0.0014320268317479
0.22288225235414
-0.0015224291703926
0.22302868527466
-0.0016110838916582
0.22318424896091
-0.0016987259140515
0.22334892160238
-0.0017842472235077
0.22352286731556
-0.0018691997574243
0.2237059083367
-0.0019508108361102
0.2238982855162
-0.0020324848059497
0.22409940946279
-0.0021077546283829
0.22430974853646
-0.0021848908082714
0.22452787981241
-0.002249628145002
0.22475510127885
-0.0023225303204682
0.22498829192064
-0.0023715061386916
0.22523116117512
-0.0024459605631514
0.22547671617859
-0.0024711650804826
-0.0025619730853464
0.22573439762123
0.2093111929711
-5.5644057356046e-05
0.2093245234803
-0.00016996664384211
0.20934663818691
-0.00028292365180587
0.20937719604367
-0.00039389022763981
0.20941592233416
-0.00050316057117823
0.20946267633263
-0.00061117546594336
0.20951749248721
-0.00071846141565979
0.20958056314018
-0.00082550554046564
0.20965215548853
-0.00093248034107977
0.20973251955748
-0.001039257557749
0.20982182248024
-0.0011454062938772
0.20992014785013
-0.0012505708682023
0.2100275123975
-0.0013543456033738
0.21014392769461
-0.0014567359943896
0.210269401419
-0.0015575005851914
0.21040400542048
-0.001657033200463
0.21054779587307
-0.0017548743719315
0.2107009351753
-0.0018518652435641
0.21086347165726
-0.0019467837319168
0.21103564389237
-0.0020413720186924
0.21121734830151
-0.002132515270667
0.21140889561422
-0.0022240321439008
0.21160978059807
-0.0023086396368058
0.21182049428671
-0.0023956045214224
0.21203976994134
-0.0024689038235288
0.21226874768196
-0.0025515080849528
0.21250468155274
-0.0026074400327509
0.2127508386987
-0.002692117731947
0.21300072833034
-0.0027210547337619
-0.0028253073756196
0.21326406259721
0.19756350017441
-5.9707733256249e-05
0.19757627790983
-0.00018274441262508
0.19759747343823
-0.00030411921358942
0.19762672309651
-0.00042313991918483
0.19766373546774
-0.00054017297519475
0.19770836873639
-0.00065580876711498
0.19776067798248
-0.00077077069369673
0.19782089575824
-0.00088572334786707
0.19788934070104
-0.0010009253148585
0.19796631483853
-0.001116231725881
0.19805203250876
-0.0012311239939965
0.19814661811436
-0.0013451565033201
0.19825012753849
-0.0014578550562339
0.19836261288448
-0.0015692213687326
0.19848412952863
-0.001679017256877
0.19861480394198
-0.0017877076410002
0.19875475672707
-0.0018948271834124
0.19890422074994
-0.0020013292924986
0.19906332271257
-0.0021058857198641
0.19923238054554
-0.0022104298767105
0.19941137953734
-0.0023115142868122
0.19960070297347
-0.0024133556041961
0.1997999567962
-0.0025078934830424
0.20000965669029
-0.0026053044389058
0.200228718495
-0.0026879656510263
0.2004581779743
-0.0027809675869317
0.20069564041732
-0.0028449024978152
0.2009439621708
-0.0029404395070045
0.20119747285081
-0.0029745654341614
-0.0030931012296748
0.20146526668278
0.18647510923195
-6.3539624121903e-05
0.18648722067457
-0.00019485588601335
0.18650731384965
-0.0003242124195367
0.18653500550583
-0.00045083160621077
0.18656999046989
-0.00057515796974297
0.18661212703901
-0.00069794536657105
0.18666148975898
-0.00082013344353913
0.18671834804465
-0.00094258166322298
0.18678306772693
-0.0010656450262906
0.1868559989353
-0.0011891629631778
0.18693740070153
-0.0013125257885427
0.18702743715838
-0.0014351929882533
0.18712620372916
-0.0015566216544424
0.18723379404372
-0.0016768117104626
0.18735031308548
-0.001795536325127
0.18747594369532
-0.0019133382770727
0.18761087409652
-0.0020297576101362
0.18775541006212
-0.0021458652833544
0.18790976281357
-0.0022602384958539
0.18807433261255
-0.0023749996999825
0.18824920613625
-0.0024863878341065
0.18843484331955
-0.0025989928108644
0.18863097645591
-0.0027040266420933
0.1888381777679
-0.0028125057734079
0.18905549829389
-0.0029052861988702
0.18928405180379
-0.0030095211185147
0.18952150891297
-0.0030823596280189
0.18977081400064
-0.0031897446151743
0.19002649103241
-0.0032302424852829
-0.0033641652009201
0.19029755498266
0.17600901864642
-6.7109537478535e-05
0.17602036714932
-0.00020620441770184
0.17603919880492
-0.00034304410409382
0.17606511529244
-0.00047674812272963
0.17609780075643
-0.00060784346242962
0.17613711447058
-0.00073725910931177
0.17618314855964
-0.00086616756078776
0.17623620502725
-0.0009956381588752
0.17629669144761
-0.0011261314742288
0.17636500081115
-0.0012574723541209
0.17644143294444
-0.0013889579487321
0.1765261892541
-0.001519949324647
0.17661940356417
-0.0016498359907149
0.17672121036773
-0.0017786185400511
0.17683176426759
-0.0019060902504425
0.17695130419278
-0.0020328782275329
0.1770800869016
-0.0021585403436136
0.17721849117233
-0.002284269578512
0.17736681626787
-0.0024085636151643
0.17752554588321
-0.0025337293388124
0.17769487567728
-0.0026557176509781
0.17787534968817
-0.0027794668442647
0.17806682824859
-0.002895505224326
0.17826997622644
-0.0030156537728148
0.17848395715507
-0.003119267148369
0.17871001970945
-0.0032355836935154
0.17894590178437
-0.0033182417229081
0.17919469625588
-0.003438539106104
0.1794509735961
-0.0034865198438669
-0.003637173936812
0.17972398231198
0.16613030582284
-7.0393405871645e-05
0.16614081315105
-0.00021671177333296
0.1661582531696
-0.00036048415026133
0.16618221713844
-0.00050071211921222
0.16621238172541
-0.00063800807673463
0.16624860781655
-0.00077348522763238
0.16629100260325
-0.00090856237423382
0.1663398954058
-0.001044530987973
0.16639572896425
-0.001181965058733
0.16645893286098
-0.0013206762766976
0.16652984267703
-0.0014598677901458
0.16660869330749
-0.0015987999803173
0.16669565435529
-0.0017367970632618
0.1667908989225
-0.0018738631318862
0.16689462936514
-0.0020098207172402
0.16700713829157
-0.0021453871779698
0.16712874946237
-0.002280151537893
0.16725991240306
-0.0024154325424568
0.16740101437158
-0.0025496656063136
0.1675526227829
-0.0026853377724533
0.16771504310921
-0.002818137998881
0.16788891357694
-0.0029533373332171
0.16807421823377
-0.0030808099016227
0.16827174192459
-0.0032131774837078
0.1684807576931
-0.0033282829362367
0.16870267503103
-0.0034575010504541
0.1689353291407
-0.0035508958509342
0.16918196468193
-0.0036851746651679
0.16943725600018
-0.0037418111790452
-0.0039105168397024
0.16971059888447
0.15680600908355
-7.3373824059254e-05
0.1568156164949
-0.00022631921121272
0.15683156686182
-0.00037643454384363
0.1568534453614
-0.00052259064533198
0.15688092410569
-0.00066548684710572
0.15691386596081
-0.00080642710849429
0.15695239025382
-0.00094708669238079
0.1569968478409
-0.0010889885997683
0.15704770931728
-0.0012328265591691
0.1571054336049
-0.0013784005880304
0.15717038589639
-0.0015248201047682
0.15724282986682
-0.0016712439736588
0.15732296701784
-0.00181693423675
0.15741100522381
-0.0019619013602039
0.15750719094288
-0.0021060064582565
0.15761186596783
-0.0022500622247481
0.15772541721916
-0.0023937028105896
0.15784836024242
-0.0025383755868527
0.15798116677371
-0.002682472158143
0.15812448663643
-0.0028286576553348
0.15827873038439
-0.0029723817662379
0.15844464081742
-0.0031192477851533
0.15862231567591
-0.003258484778166
0.15881268942663
-0.003403551251947
0.15901512321202
-0.0035307167383391
0.15923124572398
-0.0036736235786675
0.15945894492928
-0.0037785950718264
0.15970170992672
-0.0039279396777437
0.15995434041631
-0.0039944416831329
-0.0041824438590709
0.16022626741944
0.14800501727038
-7.6040188730698e-05
0.14801368633114
-0.00023498829828741
0.14802808225923
-0.00039083049818563
0.14804778832254
-0.00054229673443376
0.14807247489709
-0.000690173446625
0.14810200686595
-0.00083595910155729
0.14813651232792
-0.00098159217753621
0.14817635747616
-0.0011288337703776
0.1482220330102
-0.0012785021145714
0.14827401957543
-0.0014303871739627
0.14833270522916
-0.0015835057784185
0.14839837680942
-0.001736915573462
0.14847126282012
-0.001889820266488
0.14855160104257
-0.0020422396015287
0.14863967682388
-0.002194082258061
0.14873587466302
-0.0023462600822779
0.14884063867608
-0.0024984668416233
0.14895454315114
-0.0026522800796613
0.14907813767343
-0.0028060666975788
0.14921215073525
-0.0029626707338386
0.14935708781533
-0.0031173188621844
0.14951380588169
-0.0032759658667117
0.149682499295
-0.0034271782057094
0.14986428565566
-0.0035853376261051
0.15005858935181
-0.003725020447037
0.15026731747729
-0.0038823517160853
0.15048835077838
-0.003999628384183
0.15072550503381
-0.0041650939440907
0.15097364889699
-0.0042425855569613
-0.0044510826373153
0.15124228766274
0.13969796527689
-7.838823075919e-05
0.1397056773182
-0.00024270036730508
0.13971848688211
-0.00040364008957022
0.1397359790353
-0.00055978891405459
0.13975782475164
-0.00071201918787145
0.13978389083062
-0.00086202520395525
0.13981431079491
-0.0010120121635389
0.13984945984724
-0.0011639828429482
0.13988984082837
-0.0013188831144126
0.13993594819456
-0.0014764945577288
0.13998818584817
-0.0016357434485217
0.14004685776862
-0.0017955875097568
0.14011221388231
-0.0019551763953943
0.14018451585283
-0.002114541587018
0.14026408179049
-0.0022736482103102
0.14035133088486
-0.0024335091911218
0.14044675708463
-0.0025938930554669
0.14055098349399
-0.0027565065028337
0.14066462941045
-0.002919712627245
0.14078849377449
-0.0030865351105061
0.14092316567198
-0.0032519907713875
0.14106961606828
-0.0034224162738564
0.14122812282475
-0.0035856849718622
0.14139999106404
-0.0037572058740644
0.14158472835365
-0.0039097577441771
0.14178452042865
-0.0040821437977625
0.14199728677319
-0.0042123947346674
0.14222720801564
-0.004395015192227
0.14246899376127
-0.0044843713085046
-0.0047143360618971
0.14273224717798
0.13185713528808
-8.041881765644e-05
0.13186388891338
-0.00024945402561736
0.13187511055101
-0.00041486176017606
0.13189039025512
-0.00057506864941458
0.131909401071
-0.00073103003250771
0.13193201098129
-0.00088463514047709
0.13195835555585
-0.0010383567616971
0.13198881279758
-0.001194440105931
0.13202389006262
-0.0013539603985073
0.13206408792392
-0.0015166924363914
0.1321098195704
-0.0016814751108798
0.13216139985002
-0.0018471678043224
0.13221909462411
-0.00201287118364
0.13228318217681
-0.0021786291534833
0.1323540065658
-0.0023444726126682
0.13243201129984
-0.0025115139383273
0.13251773275715
-0.0026796145255386
0.13261182866306
-0.0028506024211503
0.1327149825235
-0.0030228664993948
0.13282804514045
-0.0031995977384275
0.13295169012986
-0.003375635770647
0.13308697802398
-0.0035577041766517
0.13323428226617
-0.0037329892212795
0.13339505290343
-0.0039179765171661
0.13356891258177
-0.0040836174268529
0.13375827941536
-0.0042715106344818
0.13396123881735
-0.0044153541388198
0.13418238540843
-0.0046161617852356
0.13441626390416
-0.0047182498067815
-0.0049703419768689
0.1346722698144
0.12445636473268
-8.2137248480687e-05
0.12446217198233
-0.00025526132104193
0.12447182948661
-0.00042451931131096
0.12448493507986
-0.00058817428747775
0.12450116551591
-0.00074726050995588
0.12452038927877
-0.00090385894106738
0.12454273973346
-0.0010607072504662
0.12456859022119
-0.0012202906245096
0.1245984449707
-0.001383815175975
0.12463280356979
-0.0015510510612016
0.12467208324716
-0.001720754812133
0.12471660392579
-0.0018916885056001
0.12476664325113
-0.0020629105306571
0.12482248775167
-0.002234473675134
0.12488450198554
-0.0024064868671327
0.1249531400159
-0.0025801519889368
0.1250289759075
-0.0027554504368309
0.12511267931818
-0.0029343058509733
0.1252050008083
-0.00311518800772
0.12530680239087
-0.0033013993381127
0.12541886956444
-0.0034877029598368
0.12554228495374
-0.0036811195799043
0.12567758403652
-0.0038682883160472
0.12582627761224
-0.004066670102894
0.1259881478845
-0.0042454877070519
0.12616574523413
-0.0044491079902207
0.12635727325819
-0.004606882167538
0.1265679072272
-0.0048267957583712
0.1267924304809
-0.0049427730652787
-0.0052184895433018
0.12704057803988
0.11747096166707
-8.3555191829067e-05
0.1174758499315
-0.00026014965457908
0.11748399162464
-0.00043266107617355
0.11749499161373
-0.00059917434634183
0.11750853430053
-0.00076080326254938
0.11752449111045
-0.00091981581227709
0.11754298982142
-0.0010792060182809
0.11756438992394
-0.0012416907799695
0.11758918363322
-0.0014086089348469
0.11761786309767
-0.0015797305726068
0.11765084482296
-0.0017537365823037
0.11768844899839
-0.0019292927244225
0.11773096192495
-0.0021054234994742
0.11777866926391
-0.0022821810555419
0.11783195219371
-0.002459769837653
0.11789125934048
-0.002639459175772
0.11795720336523
-0.0028213945008404
0.11803043584179
-0.0030075383657782
0.1181117910783
-0.003196543281131
0.11820207648092
-0.0033916847758941
0.11830225022028
-0.0035878767322053
0.11841328084416
-0.0037921502342521
0.11853601527739
-0.0039910227769962
0.11867183410092
-0.0042024889512257
0.11882089837226
-0.0043945520003147
0.11898576957361
-0.004613979210669
0.11916442914779
-0.0047855417584927
0.11936280988568
-0.0050251765116719
0.1195745784525
-0.0051545416476094
-0.0054611475186836
0.11981723640875
0.11087762548013
-8.4695855923863e-05
0.1108816458127
-0.00026417008826529
0.11088835297342
-0.00043936834182905
0.11089735206256
-0.00060817353848174
0.1109083411874
-0.00077179248603782
0.11092119439227
-0.00093266911084797
0.11093602991215
-0.0010940416270526
0.11095318607099
-0.0012588470235759
0.11097313513512
-0.0014285580802604
0.11099636047673
-0.0016029559928431
0.11102327707543
-0.0017806532574692
0.11105420471378
-0.0019602204376983
0.11108943427464
-0.0021406531339278
0.11112924137891
-0.002321988232402
0.11117401635534
-0.0025045448856046
0.11122418607078
-0.0026896289617568
0.11128039975166
-0.0028776082509061
0.11134326066902
-0.0030703993508078
0.11141370785531
-0.0032669905328969
0.11149242067959
-0.0034703976630836
0.11158062469446
-0.0036760808065898
0.11167896539843
-0.0038904909940653
0.11178889543373
-0.004100952863992
0.11191113051395
-0.0043247240791424
0.11204696240783
-0.0045303839376854
0.11219815272103
-0.004765169563294
0.1123637392605
-0.0049511283335209
0.1125493501059
-0.0052107873899695
0.11274434385785
-0.0053495354313015
-0.0056998976904685
0.11298309399312
0.10465436176163
-8.5591763736736e-05
0.10465759513069
-0.00026740359230583
0.10466296519434
-0.00044473854294637
0.10467009244031
-0.00061530091947822
0.10467869998357
-0.00078040015988906
0.10468866482328
-0.00094263407626326
0.10470007396665
-0.0011054508915788
0.10471322539551
-0.0012719985697391
0.10472856421007
-0.0014438970090456
0.10474656710956
-0.0016209590041275
0.10476767193686
-0.0018017581947025
0.10479220853162
-0.0019847571408485
0.10482046810513
-0.0021689128145235
0.10485271068503
-0.002354230918084
0.1048893165159
-0.0025411508210028
0.1049306812186
-0.0027309937674178
0.10497746450687
-0.0029243916403582
0.10503020966179
-0.0031231446044405
0.10508993530918
-0.0033267162759521
0.10515716038118
-0.0035376228266095
0.10523341392551
-0.0037523344376621
0.10531885433252
-0.0039759314821192
0.10541589675861
-0.0041979953654606
0.10552376147432
-0.0044325888644343
0.10564633835793
-0.0046529608852745
0.10578155770897
-0.0049003889723392
0.1059349980715
-0.0051045687485877
0.10610648115432
-0.0053822705208052
0.10629495783756
-0.0055380121601389
-0.0059206499741676
0.10651571006862
0.098780342110769
-8.6215746761369e-05
0.098782865866065
-0.0002699275049083
0.098786935095375
-0.00044880793062147
0.098792332530373
-0.00062069851018814
0.098798734643653
-0.00078680242487691
0.098806088513659
-0.00094998809391755
0.098814439362956
-0.0011138018849094
0.098824022696639
-0.0012815820446767
0.098835244516803
-0.0014551189683204
0.098848556812777
-0.0016342714377397
0.098864386765573
-0.0018175882839047
0.098883071112742
-0.0020034416234956
0.098904906698265
-0.002190748534453
0.098930149249874
-0.0023794736030974
0.098959171720552
-0.0025701734236662
0.098992354963482
-0.0027641771407659
0.099030364519337
-0.0029624013242599
0.099073709418534
-0.0031664896286788
0.09912346009252
-0.0033764670705206
0.099180010065396
-0.0035941729144416
0.099245117088315
-0.0038174415683
0.099318494514061
-0.0040493090077617
0.099403491453571
-0.0042829923965824
0.099497684023212
-0.0045267815178664
0.099608239935694
-0.0047635168736831
0.09972693841899
-0.0050190875235889
0.099869549227779
-0.0052471796176176
0.10001704557231
-0.0055297669201141
0.10020149629403
-0.0057224629353669
0.10042698167032
-0.0061461354110497
0.39439327699452
0.0046664482487103
0.38988578734565
0.0045074896104278
0.38554201854741
0.0043437687603113
0.38136661399606
0.0041754045132915
0.37736408105687
0.0040025329009885
0.37353879568332
0.0038252853347884
0.36989499865964
0.0036437969845464
0.36643679030992
0.003458208309896
0.36316812601362
0.0032686642560533
0.36009281198671
0.0030753139858982
0.35721449640285
0.0028783155424392
0.35453665639215
0.0026778399685058
0.35206258182445
0.0024740745251114
0.34979535887684
0.0022672229042631
0.34773785394581
0.0020575048873281
0.34589270040925
0.0018451534921143
0.34426228807346
0.0016304122910509
0.34284875705591
0.0014135309720819
0.34165399470059
0.0011947623096032
0.34067963611443
0.00097435853969985
0.33992706539934
0.00075257066840307
0.33939741705439
0.00052964829750573
0.33909156720055
0.00030584980614784
0.33901004435735
8.1522794718074e-05
0.33915357638777
-0.00014353207916912
0.33952229056392
-0.00036871422573717
0.34011612127516
-0.00059383076110724
0.34093483111691
-0.00081870989244402
0.34197796873558
-0.0010431376695854
0.34324486787146
-0.001266899187543
0.34473464905898
-0.0014897812392602
0.34644622534621