/*--------------------------------*- C++ -*----------------------------------*\
| =========                 |                                                 |
| \\      /  F ield         | OpenFOAM: The Open Source CFD Toolbox           |
|  \\    /   O peration     | Version:  2112                                  |
|   \\  /    A nd           | Website:  www.openfoam.com                      |
|    \\/     M anipulation  |                                                 |
\*---------------------------------------------------------------------------*/
FoamFile
{
    version     2.0;
    format      ascii;
    arch        "LSB;label=32;scalar=64";
    class       volScalarField;
    location    "19.5";
    object      p;
}
// * * * * * * * * * * * * * * * * * * * * * * * * * * * * * * * * * * * * * //

dimensions      [0 2 -2 0 0 0 0];

internalField   nonuniform List<scalar> 
22000
(
0.0082073800035233
0.008185391929055
0.0081399694646258
0.0080699819373549
0.0079749081746146
0.0078548071007616
0.0077100117797001
0.0075408871045484
0.0073477337374888
0.0071308039149133
0.0068903505355546
0.0066266627052647
0.006340072311657
0.0060309563972742
0.0056997265158972
0.0053468349986934
0.0049727589066595
0.0045780221536738
0.0041631640827697
0.0037287894551583
0.0032754959300941
0.0028039831894105
0.0023148892249059
0.0018090366521891
0.0012870643256504
0.00074997747531493
0.00019832100189792
-0.00036658800242763
-0.0009445202130636
-0.0015336100613807
0.0086199767872048
0.008596634203099
0.0085493982405196
0.008477256180096
0.0083796522137606
0.0082565719434622
0.0081082936283099
0.0079351544525207
0.0077374434701345
0.0075154071049952
0.0072692920272619
0.0069993803720525
0.0067059949892065
0.0063895050677646
0.0060503126346055
0.005688864602003
0.0053056290391921
0.0049011290601385
0.0044758948074437
0.0040305384991484
0.0035656450833699
0.0030819360983474
0.002580024911316
0.0020607820647335
0.0015247881624854
0.00097314540699837
0.00040625510166287
-0.00017438142217505
-0.00076889258683054
-0.001375149127591
0.0093788271132415
0.0093543701609256
0.0093049784414642
0.0092296928869737
0.0091279964739026
0.0089998776729714
0.0088455955290028
0.0086654633459591
0.0084597492179341
0.0082286829116674
0.0079724953886292
0.0076914540190523
0.0073858647097851
0.0070560818805598
0.0067024898187772
0.0063255242522382
0.0059256361179228
0.0055033453048471
0.0050591640440219
0.0045937156747732
0.0041075611047136
0.0036014605751608
0.0030759832336748
0.0025320927631857
0.0019702690665084
0.0013918198436338
0.00079690031356421
0.00018743878746836
-0.00043732935158105
-0.001074609418486
0.010438701690802
0.010412959220315
0.010360976981779
0.010281762731409
0.010174794004391
0.010040061404919
0.0098778181115788
0.0096883606303952
0.009471932343342
0.0092287362865072
0.008958975693683
0.0086628921086421
0.0083407632775477
0.0079929184402891
0.0076197118527963
0.0072215576420684
0.0067988759881985
0.0063521752924606
0.0058819352209465
0.0053887876594049
0.004873252108364
0.004336136047375
0.0037779378823663
0.0031997456401844
0.0026018863868435
0.0019859475518555
0.0013517131948077
0.00070168760895324
3.4147838808836e-05
-0.00064722632296357
0.01176110680065
0.011733878719394
0.011678892688051
0.011595105236194
0.011481971515379
0.011339472666685
0.011167848994332
0.010967373565724
0.010738255370101
0.010480657912313
0.01019474146236
0.0098807057569107
0.0095387830910053
0.0091692605174474
0.0087724433470907
0.0083487068019032
0.0078984197826168
0.007422063286866
0.0069200621066475
0.0063930451588359
0.005841464649277
0.0052661736237018
0.0046675641683476
0.0040468678888812
0.0034041992000442
0.0027414880498605
0.0020580253173205
0.0013570460635331
0.00063559381912157
-0.00010149179411755
0.013312462082387
0.013283626218534
0.013225386868093
0.01313664379209
0.013016823000845
0.012865886037149
0.012684047610571
0.012471543055761
0.012228531139278
0.011955118604985
0.011651403599062
0.011317523555209
0.010953642717318
0.010559982822219
0.010136774776143
0.009684330417391
0.0092029394749609
0.0086930314308739
0.0081549457522201
0.0075892876663674
0.0069964076909752
0.0063771929054892
0.005731886445972
0.0050618724863309
0.0043669881411233
0.0036495602829251
0.0029082667323758
0.0021472168146115
0.001361948136432
0.00055869611901326
0.015062509267688
0.015032039069353
0.014970488162132
0.014876696003896
0.014750053854374
0.014590493085974
0.014398188074531
0.014173319049611
0.013915975299064
0.013626186034598
0.013303964366418
0.012949360629475
0.012562443519448
0.012143340631734
0.011692176764952
0.011209168815557
0.010694492019796
0.010148491798758
0.009571383385351
0.0089637176985912
0.0083257001225019
0.0076582287954738
0.0069613454290062
0.0062365832956722
0.0054834296761787
0.0047046459155176
0.0038981684755199
0.0030691001822427
0.0022111910099256
0.0013322601432492
0.016983093983035
0.016951057161466
0.016886326641799
0.016787679792844
0.016654467315078
0.01648657861607
0.016284131413672
0.016047231730753
0.015775878147476
0.015469999089079
0.015129496631228
0.014754305404589
0.01434436667333
0.013899679906749
0.013420226373637
0.01290608973952
0.012357288198731
0.011774042021056
0.0111563945597
0.010504801324259
0.0098192689527304
0.0091006710337141
0.0083487851096737
0.0075652737957841
0.0067491902302212
0.0059037490360648
0.005026008689806
0.0041221588849433
0.0031838766835996
0.0022207054370199
0.019047409567582
0.019013965031871
0.018946370885335
0.018843342366601
0.018704183826721
0.018528729967618
0.018317024524184
0.018069079366327
0.017784780232363
0.017463930060731
0.017106291782661
0.016711652906689
0.016279792090622
0.015810542632542
0.015303700184004
0.014759171061765
0.014176767455693
0.01355653542727
0.012898290559972
0.012202341301377
0.011468432043555
0.010697362529195
0.0098885714342703
0.009043814618696
0.0081616166050756
0.0072456416335316
0.0062919248756346
0.0053078069465388
0.0042826014504203
0.0032276541934441
0.021229607301061
0.021194998965058
0.021125030091272
0.021018354346011
0.020874223441127
0.020692404476623
0.020472850344178
0.020215459408273
0.019919982639802
0.019586072405282
0.019213323582466
0.018801343870492
0.018349712499624
0.017858056109999
0.017325939604664
0.016753043521457
0.016138920159555
0.015483385581358
0.0147859646602
0.014046757466632
0.013265173314654
0.012441875571936
0.011575879158039
0.010668978232636
0.0097190620889012
0.008730217449614
0.0076973026157792
0.0066288362511648
0.0055114735455646
0.0043583650064362
0.023504670714981
0.023469218249543
0.023397518729464
0.023288164072106
0.02314034675634
0.022953754679629
0.022728235081226
0.022463555195699
0.022159310523015
0.021814978724192
0.021429958692657
0.021003646348042
0.020535385018
0.020024553690407
0.019470440346871
0.018872449048222
0.018229815529298
0.01754206531524
0.016808364564658
0.016028535422173
0.015201571839874
0.014327925448246
0.013406092049328
0.012437831243532
0.011420280798001
0.010357894253543
0.0092441910265808
0.0080888530995263
0.0068755775296408
0.0056192298624327
0.025848476794689
0.025812560180229
0.025739902146673
0.025629031294226
0.025479075694562
0.025289635311064
0.025060439392385
0.024791108266093
0.024481063331073
0.024129586015226
0.023735854313352
0.023299023197843
0.022818166122541
0.022292375205689
0.021720616748593
0.021101967847807
0.020435290804649
0.019719757809354
0.018954105850264
0.018137803767213
0.017269344645363
0.016348882224566
0.015374290895203
0.014347203679222
0.01326388072502
0.012129057567439
0.010934747538068
0.0096917278602596
0.0083804473863174
0.0070172884079993
0.028237982331181
0.028202029333996
0.028129274815354
0.028018191763987
0.027867844869806
0.027677740430302
0.027447479056619
0.027176520469838
0.026864096340234
0.026509274367559
0.026110991412914
0.025668136961068
0.025179485247371
0.024643806490719
0.024059704653237
0.02342588238343
0.022740774443697
0.022003137540184
0.021211209711222
0.020364028047652
0.019459497542476
0.018497379413861
0.017474820075423
0.016393218473882
0.015247829785099
0.014043552126596
0.012770731753156
0.011441085154083
0.010031544732178
0.0085596521601552
0.030651425603801
0.030615894240038
0.030543966201118
0.030434072403435
0.030285219107218
0.030096815238879
0.029868324774391
0.029599037692891
0.029287986588002
0.028934014070172
0.02853580110497
0.028091952714245
0.027600921026872
0.027061125825632
0.026470774839672
0.025828154610875
0.025131224198035
0.024378266465014
0.023566954856197
0.022695816306444
0.021762081956883
0.020765019589551
0.019700941501094
0.018570887059138
0.01736898815023
0.016100146250315
0.014752972003935
0.013339787051165
0.01183417062122
0.010253098959093
0.03306855485676
0.033033917720052
0.032963770390491
0.032856518286309
0.032711116804651
0.032526877002926
0.03230312234257
0.032038968783112
0.031733246061587
0.031384567190181
0.030991350917172
0.030551907132102
0.03006435069636
0.029526730356211
0.028936832783182
0.028292495263304
0.027591162237393
0.026830591483272
0.026007834517965
0.025120833242921
0.024166065665393
0.023142200856787
0.022044615689507
0.020873837927446
0.019622780772916
0.018296052859417
0.016880665765778
0.015388618480426
0.013791783179367
0.01210472885914
0.035470851382399
0.035437580527525
0.035370168379511
0.035267013566555
0.035127030910698
0.034949436357261
0.034733413265974
0.034477904821392
0.034181540624999
0.033842706654638
0.033459560801907
0.033030116108995
0.032552145915604
0.032023317510239
0.031440982152898
0.030802505105648
0.030104789562212
0.029345027089266
0.028519602848107
0.02762580611913
0.026659295579955
0.025618036292276
0.024496384026086
0.023294187899261
0.022003064999815
0.020627061692502
0.019151513618686
0.017588018916315
0.015905249063077
0.014117283593071
0.03784170783384
0.03781025984632
0.037746508065919
0.037648864938782
0.037516216803172
0.037347690334014
0.037142333620048
0.036898923769642
0.036615899440193
0.03629142939793
0.035923420271569
0.035509595533575
0.035047392935269
0.034534099704052
0.033966630968795
0.033341868978727
0.032656163303434
0.031906110348156
0.031087401534876
0.030196616289174
0.029228547061552
0.028180357042808
0.027045306603813
0.025822425450932
0.024501881844329
0.023087082998864
0.02156118631855
0.019935768379711
0.018175081736636
0.016292565225802
0.040166549811531
0.040137352903736
0.040078130966457
0.03998733267638
0.039863830021913
0.039706668689734
0.039514770100502
0.039286757234353
0.039020893201444
0.038715146383179
0.038367189579404
0.037974472710668
0.037534114061545
0.037043033422626
0.036497722457878
0.035894584286637
0.035229418727083
0.034498211984504
0.033695953607507
0.032818468467567
0.031859660798533
0.030815800197758
0.029679014843039
0.028447362712631
0.02710947447914
0.025667947095689
0.024103464495664
0.022427507198372
0.020599149222871
0.018630911395916
0.042432895916576
0.042406339792396
0.042352440113142
0.042269705429575
0.042157008706107
0.042013325808915
0.041837464154888
0.041627908760189
0.041382767420654
0.041099831179996
0.040776564094264
0.040410167311636
0.039997465237763
0.039535033739665
0.039018965613147
0.038445203095153
0.037809016286236
0.037105785126935
0.036329806887738
0.03547612603842
0.034537759773582
0.033510000428388
0.03238385610078
0.031156218320207
0.029814256287358
0.028359331541371
0.026769830341573
0.025056181925098
0.023172825037544
0.021129339292387
0.044630351045207
0.044606785270856
0.044558913356903
0.044485324011677
0.044384907563445
0.044256585396025
0.044099068712761
0.043910725512184
0.043689532511115
0.043433130206455
0.043138804357067
0.042803539888708
0.042423902526187
0.04199615877699
0.041516038416118
0.040979055827734
0.040379984161333
0.039713623555012
0.038973601449095
0.038154192011916
0.037247525273539
0.036247893991622
0.035145155208542
0.033934940739452
0.032602985746816
0.031149074748416
0.029549739561794
0.027813021782739
0.025888909248737
0.023780991789144
0.046750529032089
0.046730266930254
0.046689047746426
0.046625549040249
0.046538691513588
0.046427359660737
0.046290188509551
0.0461254547026
0.045931036937097
0.045704458616323
0.045442861347934
0.045143049092869
0.044801371110348
0.044413826860362
0.043975831523742
0.043482515668346
0.042928206049278
0.042307165224221
0.041612396128948
0.040837441265784
0.039973564086265
0.039014094926731
0.037947672814703
0.036768719525394
0.035461250890463
0.034023704306425
0.032430306322131
0.030687088193695
0.028739794443594
0.026582236752867
0.04878692909396
0.048770231061314
0.048736198051962
0.048683596876391
0.048611396683322
0.048518459550394
0.048403350264656
0.048264268481337
0.04809903056045
0.047905089044663
0.047679489692304
0.047418895495489
0.047119487705901
0.046777042418567
0.046386721895696
0.045943315386521
0.045440778215633
0.044872867176586
0.044232055151105
0.04351116662187
0.04270071790328
0.041793079511089
0.040775771151335
0.039642037548717
0.038373900822793
0.036968704772861
0.035396989076483
0.033665612733799
0.031711943293966
0.029527135552021
0.050734861154146
0.050721842146593
0.050695320065882
0.050654181848535
0.05059748447848
0.050524073988014
0.050432446889983
0.050320734441408
0.050186696077851
0.050027731509083
0.049840840081904
0.049622594217599
0.049369066549644
0.049075856039812
0.048737948787017
0.048349827265048
0.047905180231089
0.047397247549255
0.046818135890906
0.046159832213199
0.045412422699257
0.044566985139328
0.043610605924838
0.042534676089416
0.041320478672585
0.039962639769655
0.038428375590242
0.036723216779478
0.034775491891228
0.032584997286087
0.05259159350236
0.052582119691048
0.052562928609214
0.052533290970429
0.052492426794957
0.052439081050253
0.052371677885455
0.052288368780978
0.052186907570648
0.052064622609601
0.051918451429179
0.051744883950901
0.051539918250938
0.051299005955915
0.051017026370003
0.050688184394171
0.0503060171607
0.049863212193166
0.049351732438849
0.048762483068952
0.04808563925388
0.047310091738292
0.046423973600232
0.045414310128111
0.044265991239974
0.04296422954886
0.041484679863413
0.039809906956216
0.037875696901706
0.035648705737718
0.054356820872462
0.054351031594372
0.054338576846093
0.054319895738309
0.054294567426734
0.054261116866504
0.054217847436004
0.054162862375127
0.054094068488677
0.054008973194108
0.053904538373167
0.053777186920707
0.05362284983262
0.053436824518082
0.053213895191126
0.052948050237191
0.052632746942227
0.052260172630634
0.051822285813417
0.05130896651446
0.050710818885091
0.050014207416129
0.049209180818826
0.048276193587465
0.047207739923853
0.045973375902461
0.044573602529972
0.042949403942279
0.041082143605691
0.038737229883706
-0.0020971724559138
-0.0026327644941144
-0.0031761371613621
-0.0037261410254755
-0.0042817463031194
-0.004842103240344
-0.0054064617948899
-0.0059740903376463
-0.0065442350367809
-0.0071161133118207
-0.0076889220538728
-0.0082618475001253
-0.008834073458951
-0.0094047876002157
-0.0099731854354973
-0.010538471976788
-0.011099861544358
-0.011656578824741
-0.012207861413648
-0.012752962039681
-0.013291149456318
-0.01382170688389
-0.014343926588472
-0.014857100640066
-0.015360520756988
-0.015853670767047
-0.016336159339826
-0.016807446606788
-0.01726695392391
-0.01771414618948
-0.01814855418196
-0.018569764196324
-0.018977406298293
-0.019371144729294
-0.01975067895584
-0.020115738162532
-0.020466090164583
-0.020801529812189
-0.021121897295611
-0.021427048823781
-0.021716898953486
-0.021991353520911
-0.022250409106568
-0.022494000951668
-0.022722232016593
-0.022935028005526
-0.023132665456297
-0.023314988126994
-0.023482656396958
-0.023635377710842
-0.0019520334191374
-0.0024971290258862
-0.0030510762180984
-0.0036117884177009
-0.0041778408212864
-0.0047484564722185
-0.0053231121934197
-0.005901264921726
-0.0064822557806022
-0.0070653255068896
-0.0076496628998041
-0.0082344389924507
-0.008818823779494
-0.0094019932094979
-0.009983128221355
-0.01056141024842
-0.011136019885977
-0.01170613985119
-0.012270959824444
-0.012829680824353
-0.013381520330984
-0.013925720197142
-0.014461561101236
-0.014988384185917
-0.01550560480195
-0.016012481826702
-0.016508185413039
-0.016992109401316
-0.017463750051561
-0.017922626980641
-0.018368271930437
-0.01880023968218
-0.01921812284336
-0.019621550748886
-0.020010198511676
-0.020383776019426
-0.020742045219777
-0.021084792516664
-0.021411868353374
-0.021723124814147
-0.02201850739444
-0.02229791393621
-0.022561403495488
-0.022808877136736
-0.023040550704458
-0.023256234564674
-0.023456390940089
-0.023640492237584
-0.02380936344807
-0.023961310893014
-0.0016784855454186
-0.0022477616859011
-0.0028284310378198
-0.003416220968187
-0.0040086330690713
-0.0046048645967902
-0.0052047451769987
-0.0058080299044004
-0.0064141754424039
-0.0070224024365195
-0.0076318303821683
-0.0082415643314068
-0.0088507278347659
-0.0094584674972197
-0.010063941527755
-0.010666305154787
-0.011264706068964
-0.011858290518217
-0.012446212344737
-0.013027639306924
-0.013601757146959
-0.01416777178993
-0.014724908224192
-0.015272402636614
-0.015809489571778
-0.016335460158922
-0.016849681210222
-0.017351538923545
-0.017840461205752
-0.018315916950829
-0.018777414633295
-0.019224498268033
-0.019656757947311
-0.020073823618789
-0.020475382098751
-0.020861153897731
-0.021230926886823
-0.021584502662347
-0.021921775107786
-0.022242608703693
-0.022547018419619
-0.022834895280896
-0.02310641408777
-0.02336141369836
-0.023600315064847
-0.023822719575912
-0.024029452770702
-0.024219338268413
-0.024393623948704
-0.024548128924892
-0.0012910170824499
-0.0018981146040191
-0.0025201071300762
-0.0031491943872792
-0.0037812601529655
-0.0044155458565465
-0.0050524796957703
-0.005692294484988
-0.0063346271572213
-0.0069786723301781
-0.0076234596372941
-0.0082680202284073
-0.0089114391651296
-0.0095528524116027
-0.010191417779498
-0.010826284476407
-0.01145658385523
-0.012081439149263
-0.012699978782158
-0.013311343679542
-0.013914690472746
-0.014509193875757
-0.015094050785232
-0.015668486510359
-0.016231765317876
-0.016783184701775
-0.017322068329137
-0.0178477847793
-0.01835974668859
-0.018857407968095
-0.019340270845309
-0.019807880292106
-0.020259837383451
-0.020695782907892
-0.021115424338831
-0.021518495446511
-0.021904816548789
-0.022274202478187
-0.022626599078949
-0.022961874619129
-0.023280129480789
-0.023581226303702
-0.023865488794093
-0.024132643409685
-0.024383385592804
-0.024616984356015
-0.024834752930071
-0.025034499871212
-0.02521795552206
-0.02537702376391
-0.00079641798227918
-0.0014533341727957
-0.0021297428578641
-0.0028129161784529
-0.0034965841878449
-0.0041801462613961
-0.0048649077792998
-0.0055517643938636
-0.0062405863732631
-0.0069305210662107
-0.0076204751479848
-0.0083093895359791
-0.0089963118347135
-0.0096803768858927
-0.010360752540513
-0.011036589525117
-0.01170700689325
-0.01237110767924
-0.013027999000444
-0.013676801927526
-0.014316655219474
-0.014946718202387
-0.015566175166179
-0.016174238822597
-0.016770153314352
-0.017353197474261
-0.017922687521423
-0.018477979982741
-0.019018479320606
-0.019543635428243
-0.020052953762883
-0.02054598452645
-0.021022342456479
-0.02148167935224
-0.021923727082094
-0.022348234178615
-0.022755061395611
-0.023144037184961
-0.02351517242318
-0.023868335389682
-0.024203734338055
-0.024521189233413
-0.02482121311535
-0.02510337943415
-0.025368733536814
-0.025616105344353
-0.025847433940988
-0.026059215396168
-0.026253830376655
-0.026418153764711
-0.00019745546297278
-0.0009153941567061
-0.0016587679508098
-0.0024083311420691
-0.0031550689819509
-0.0038986751647761
-0.0046416376023662
-0.0053857030141032
-0.0061310132867689
-0.0068766286294978
-0.0076212869095766
-0.0083638159212925
-0.0091032226979878
-0.0098386469810519
-0.010569273263034
-0.011294256707198
-0.012012704141875
-0.012723697948881
-0.01342632445968
-0.014119686493814
-0.014802906352404
-0.015475127442758
-0.016135518118995
-0.016783274487303
-0.017417624549632
-0.018037836932469
-0.018643222184266
-0.019233132352836
-0.019806971468246
-0.020364190986716
-0.020904304652886
-0.021426871377136
-0.021931524770915
-0.022417932194196
-0.022885859003251
-0.023335073891994
-0.023765490715861
-0.024176956135272
-0.024569564557258
-0.024943185015157
-0.025298161941374
-0.025634263871343
-0.025952240366419
-0.026251480414949
-0.026533463150374
-0.026796492665399
-0.027043281260163
-0.027268752810823
-0.027476097361142
-0.027646092847782
0.0005056288079819
-0.00028413905853747
-0.0011068551705049
-0.0019349116995569
-0.0027559040906615
-0.0035700084603719
-0.00438125423398
-0.0051924435594212
-0.0060040180988307
-0.0068148959529929
-0.0076235909010092
-0.0084287929459768
-0.0092294678688827
-0.010024767486062
-0.010813898284753
-0.011596020848951
-0.012370227333633
-0.013135576411009
-0.013891131681634
-0.01463597646794
-0.015369215541808
-0.016089975540292
-0.01679740905114
-0.017490697814407
-0.018169058245556
-0.018831749992262
-0.019478077004725
-0.02010738740505
-0.020719086657788
-0.021312629408356
-0.02188754028758
-0.02244338889818
-0.022979832638225
-0.023496557194286
-0.023993368419121
-0.024470058209046
-0.024926604892804
-0.025362875162275
-0.025779064412664
-0.026175040934522
-0.026551313598352
-0.026907589806244
-0.027244903083927
-0.027562429526157
-0.02786216464385
-0.028141809781788
-0.028404987016469
-0.028644813504919
-0.0288654163366
-0.029040472266809
0.0013151455463054
0.00044295766656694
-0.00047153653009064
-0.0013902009344125
-0.0022965319252197
-0.0031914455848518
-0.0040809403091056
-0.0049690987529078
-0.0058566780635125
-0.0067423802379144
-0.0076244298505993
-0.0085013534483471
-0.0093720761177173
-0.010235769583436
-0.011091666299141
-0.011938929624369
-0.012776631011985
-0.013603799288859
-0.014419470395422
-0.015222704579138
-0.016012586193902
-0.016788222395656
-0.017548747494696
-0.018293326123117
-0.019021159781244
-0.01973149588024
-0.020423629307421
-0.021096901613186
-0.021750717970172
-0.022384533950506
-0.022997884902093
-0.023590350146948
-0.024161612631025
-0.024711376069039
-0.025239492174009
-0.02574577578616
-0.026230279271047
-0.026692888931075
-0.027133918445207
-0.027553232775273
-0.027951534113862
-0.028328460034978
-0.028685376053894
-0.029021221380256
-0.029338586832637
-0.029634509946802
-0.029913646064065
-0.03016712652338
-0.030400138423803
-0.030578463003831
0.0022355370148066
0.0012704031835594
0.00025143849773112
-0.00077013958726917
-0.0017729475696383
-0.0027589864094024
-0.0037367330289403
-0.004711795792022
-0.0056852437718832
-0.0066554659331167
-0.0076203207346198
-0.0085781447672483
-0.0095278269401839
-0.010468567541249
-0.011399625777692
-0.012320161183293
-0.013229214424286
-0.014125774991594
-0.015008843877396
-0.015877452067149
-0.016730657512985
-0.017567541720926
-0.018387214330771
-0.019188816121407
-0.01997152692381
-0.020734575787328
-0.021477242967702
-0.022198857137743
-0.022898818240717
-0.023576577884941
-0.024231678910539
-0.024863705233364
-0.025472364142717
-0.026057372936719
-0.02661863120693
-0.027155973294558
-0.027669533505629
-0.028159214040593
-0.028625462476543
-0.029068135511591
-0.02948815590938
-0.029885082839763
-0.030260658203034
-0.030613567659726
-0.030947067311786
-0.031257494986154
-0.031550641254292
-0.031815549810982
-0.032058552757726
-0.032236973750809
0.0032729432178934
0.002204291407478
0.0010677610967849
-6.9345605573508e-05
-0.0011799183259737
-0.0022674980399819
-0.0033436409026275
-0.0044157424752663
-0.0054851540432016
-0.0065498272267365
-0.0076071674093602
-0.0086552971042379
-0.0096930768421023
-0.010719744907595
-0.011734585641436
-0.012736743173889
-0.013725213168905
-0.014698933302155
-0.015656859216211
-0.01659798347524
-0.017521328573697
-0.018425940695366
-0.019310894877352
-0.020175297900336
-0.021018298153976
-0.021839096578512
-0.022636949342215
-0.023411162170487
-0.024161120485379
-0.024886261077922
-0.025586126565818
-0.026260296048657
-0.026908495415103
-0.027530445768355
-0.028126092512455
-0.028695279859936
-0.02923822708182
-0.029754843432852
-0.030245721341007
-0.030710700475679
-0.031150945646259
-0.031565928933205
-0.03195780398155
-0.032324994135413
-0.032671472293544
-0.03299287296298
-0.033296184420616
-0.033568357760513
-0.033816905772835
-0.03399047353776
0.0044347410738889
0.0032518990749045
0.0019842317461081
0.00071862907256068
-0.00051117381387417
-0.0017108509986058
-0.0028957389247099
-0.004075288129146
-0.0052510635702204
-0.0064204245068512
-0.0075802275545596
-0.008728361843533
-0.0098636745821639
-0.010985451769304
-0.012092995597648
-0.013185417648875
-0.014261649815039
-0.015320562084707
-0.016361052113216
-0.017382062085342
-0.01838256645284
-0.019361562679675
-0.020318077358535
-0.021251168961531
-0.022159940333471
-0.023043550098742
-0.023901216579237
-0.024732207610573
-0.025535880516174
-0.026311641574042
-0.027059018745259
-0.027777568822771
-0.028467025263472
-0.029127096973672
-0.02975776641981
-0.030358871058146
-0.030930711334727
-0.031473187763802
-0.03198704036758
-0.032472078673417
-0.032929719691188
-0.033359340360543
-0.033763522200841
-0.034140432159459
-0.034494776623928
-0.034821529533694
-0.035128875096416
-0.035401805599733
-0.035648970988179
-0.03581058320231
0.0057290905400632
0.0044212671748539
0.0030083999006894
0.0016010032509859
0.00024035047907348
-0.0010821258516878
-0.002386342318856
-0.0036840633544875
-0.0049769493499556
-0.0062615780746758
-0.0075341568954387
-0.0087923316613038
-0.010034957017469
-0.011261375652511
-0.012470895224452
-0.013662570235536
-0.014835244984868
-0.015987703061464
-0.01711876826117
-0.018227317074126
-0.019312259837502
-0.020372527804591
-0.021407081018253
-0.022414910681955
-0.023395055205349
-0.024346611925882
-0.025268742253835
-0.026160655350615
-0.027021660764926
-0.027851111988011
-0.028648502479072
-0.029413343030022
-0.030145354485659
-0.030844208698624
-0.031509907921717
-0.032142257766256
-0.03274162432271
-0.033307876748794
-0.033841891037469
-0.034343430272429
-0.034814153594251
-0.035253340108347
-0.035663984029293
-0.036044023792111
-0.036398858912369
-0.036722909792759
-0.037025450834147
-0.037289830961073
-0.037525666692722
-0.037665597719653
0.0071643874079898
0.0057207279137094
0.0041481718072852
0.0025854445141972
0.0010822465327007
-0.00037384017431448
-0.0018082055875934
-0.0032351523745218
-0.0046562502999281
-0.0060670741361247
-0.0074630847519527
-0.008841687988783
-0.010201774337132
-0.011542748082869
-0.012863899912828
-0.014164195730784
-0.015442364056477
-0.016697080051678
-0.017927075210167
-0.019131141228741
-0.02030810346508
-0.021456804978924
-0.022576116915588
-0.023664939902811
-0.024722223684364
-0.025746978496806
-0.026738283560978
-0.02769526491834
-0.028617158454486
-0.029503233695005
-0.030352918954454
-0.031165649053526
-0.031941104311413
-0.032678887096453
-0.033378985985282
-0.034041142734463
-0.034665755116877
-0.035252633997425
-0.035802752417541
-0.036315813604287
-0.036793670416477
-0.03723551985075
-0.037644697015228
-0.038018984480856
-0.038364344263214
-0.038674844263818
-0.038960593757594
-0.039203849338923
-0.039414831020041
-0.039520260932857
0.0087486342752736
0.0071582995860021
0.0054113501471579
0.0036797187856274
0.002022334118015
0.00042178073274417
-0.0011537618444894
-0.002721299179382
-0.0042820438956509
-0.0058303116188615
-0.0073607300047107
-0.0088704901409884
-0.010358553237576
-0.011824382455605
-0.013267217787404
-0.014685895306998
-0.016078995346177
-0.017445061153676
-0.018782709972923
-0.020090625011926
-0.021367520208779
-0.022612122592275
-0.023823186194705
-0.024999493395975
-0.026139879198826
-0.027243236493336
-0.028308527299613
-0.029334761654872
-0.030321066463914
-0.03126659066825
-0.03217065786594
-0.033032592407728
-0.033851988608234
-0.034628341677585
-0.035361572271578
-0.036051325062007
-0.03669796250454
-0.037301216127013
-0.037862067385746
-0.038380166251376
-0.038857435589741
-0.039293054884805
-0.039690515740763
-0.040047613662074
-0.040370576456307
-0.04065348690284
-0.04090679820595
-0.041112543202302
-0.041280930934128
-0.041335405043061
0.010489475533496
0.0087411499241347
0.0068050442056898
0.0048912285908436
0.0030683043735197
0.0013124994988675
-0.00041540084191716
-0.0021351512728479
-0.0038472426901102
-0.0055444577288838
-0.0072205288865256
-0.0088724790723835
-0.010499379184306
-0.012100736544555
-0.0136756902421
-0.015222896700067
-0.016740752469225
-0.018227642814119
-0.019682046195845
-0.021102509151429
-0.022487601929914
-0.023835901959082
-0.025146009861432
-0.026416554610012
-0.027646221369794
-0.028833752320118
-0.029977963891369
-0.031077713889559
-0.032131958847592
-0.033139678478749
-0.034100044489306
-0.035012237773952
-0.03587569946371
-0.036689779138143
-0.037454242796348
-0.038168614897137
-0.038833107010288
-0.039447371335848
-0.040012231141786
-0.040527336545474
-0.040994429573694
-0.041412834590659
-0.041785805094361
-0.042111519168166
-0.042395848821917
-0.042633615960547
-0.042834675725679
-0.04298224589482
-0.043085425710991
-0.043068185021565
0.012393346833678
0.010476127413559
0.0083358374296791
0.006226843296998
0.0042274984442703
0.0023058625187469
0.00041431594585069
-0.0014694969596409
-0.0033448353296951
-0.0052026654142548
-0.0070358179885173
-0.0088412336127129
-0.010618128379925
-0.012366017105563
-0.014083871986057
-0.015770111802274
-0.017422911202601
-0.019040469635
-0.020621097226723
-0.022163168619693
-0.023665073165027
-0.025125201022451
-0.026541957459069
-0.027913781410219
-0.029239155653997
-0.030516622737816
-0.031744829059694
-0.032922443264103
-0.034048177506778
-0.035120790287924
-0.036139238838703
-0.037102518793053
-0.03800982433869
-0.038860324399015
-0.039653511515565
-0.040388778584404
-0.041066013842163
-0.041684819500002
-0.042245606412502
-0.042748134469785
-0.043193569481231
-0.043581658768613
-0.043914754188033
-0.04419206693786
-0.044417957868414
-0.044589332220528
-0.044713630547685
-0.04477783629816
-0.044787695894758
-0.044673394425328
0.014463999878367
0.012367894281347
0.010008952494102
0.0076923099608147
0.0055064195081271
0.0034088385408898
0.0013423895598107
-0.00071744672331708