/*--------------------------------*- C++ -*----------------------------------*\
| =========                 |                                                 |
| \\      /  F ield         | OpenFOAM: The Open Source CFD Toolbox           |
|  \\    /   O peration     | Version:  2112                                  |
|   \\  /    A nd           | Website:  www.openfoam.com                      |
|    \\/     M anipulation  |                                                 |
\*---------------------------------------------------------------------------*/
FoamFile
{
    version     2.0;
    format      ascii;
    arch        "LSB;label=32;scalar=64";
    class       surfaceScalarField;
    location    "17.5";
    object      phi;
}
// * * * * * * * * * * * * * * * * * * * * * * * * * * * * * * * * * * * * * //

dimensions      [0 3 -1 0 0 0 0];

oriented        oriented;

internalField   nonuniform List<scalar> 
43645
(
0.39512395104142
-5.0779528181843e-06
0.39513911231128
-1.5161240345236e-05
0.39516433120977
-2.5218866556012e-05
0.39519961685272
-3.5285609970819e-05
0.39524495958263
-4.534269681681e-05
0.3953003435114
-5.5383896036391e-05
0.39536575771579
-6.5414172340816e-05
0.39544119415961
-7.543641254324e-05
0.39552663309887
-8.5438908847205e-05
0.39562203573505
-9.5402606637439e-05
0.39572733759789
-0.00010530183420674
0.39584245973431
-0.00011512210865501
0.39596730376164
-0.00012484400045948
0.39610177107666
-0.00013446728896415
0.39624573917541
-0.0001439680735143
0.39639909773846
-0.00015335853854536
0.39656169197817
-0.00016259421590808
0.39673340763676
-0.00017171563539424
0.39691404238251
-0.00018063472311784
0.39710350249436
-0.00018946008966088
0.39730150589137
-0.0001980033752119
0.39750803366143
-0.00020652774852759
0.39772264512057
-0.00021461143782988
0.39794551539779
-0.00022287025598424
0.39817586033752
-0.00023034491855327
0.39841432073552
-0.0002384603767508
0.39865934569302
-0.00024502493613585
0.3989126655238
-0.00025331980949299
0.39917099728445
-0.00025833173956715
-0.00026754206878414
0.39943853937485
0.37294727407827
-9.797244577112e-06
0.37296141703644
-2.9304149170518e-05
0.37298514888425
-4.8950664116569e-05
0.3730184703581
-6.8607033652469e-05
0.37306136180781
-8.8234097043362e-05
0.37311380798534
-0.00010783002502307
0.37317580569727
-0.00012741183682377
0.3732473577196
-0.0001469883885623
0.37332845577858
-0.00016653692271303
0.37341907229825
-0.0001860190823653
0.37351915402828
-0.00020538352149936
0.37362863355833
-0.00022460159713012
0.37374742498642
-0.00024363538814379
0.37387544292391
-0.00026248518713546
0.37401257935754
-0.00028110446890591
0.37415873873281
-0.00029951787651451
0.37431378254608
-0.00031763799280604
0.37447761211507
-0.00033554516876248
0.37465004332507
-0.00035306589820546
0.37483099817785
-0.00037041490807341
0.37502021606467
-0.00038722122814574
0.37521769268872
-0.0004040043389976
0.37542301501685
-0.00041993373264091
0.3756363680278
-0.00043622323369306
0.37585700839748
-0.00045098525503346
0.37608557372218
-0.00046702566814095
0.37632058590216
-0.00048003708265739
0.37656374137076
-0.00049647524480538
0.37681190862862
-0.00050649896500666
-0.00052483982880922
0.37706920642222
0.35201549563775
-1.4395309658832e-05
0.3520292253231
-4.3033783833604e-05
0.35205213251815
-7.1857808309217e-05
0.35208422645356
-0.00010070091880766
0.3521254895997
-0.00012949719400156
0.35217590647869
-0.00015824685604888
0.3522354787411
-0.00018698405262164
0.35230421991103
-0.00021572951321812
0.35238213565699
-0.00024445262480293
0.35246921345434
-0.00027309683720234
0.35256541511682
-0.00030158514286697
0.35267068903473
-0.00032987547524475
0.35278496569881
-0.00035791201376532
0.35290817807765
-0.00038569752871684
0.35304023695589
-0.00041316331107373
0.35318106816426
-0.00044034904981824
0.35333055340534
-0.0004671231997739
0.35348861811119
-0.00049360984126373
0.35365509818827
-0.00051954594263307
0.35382994352537
-0.00054526021298825
0.3540129113827
-0.00057018905369849
0.35420403218631
-0.00059512511100406
0.35440290373969
-0.00061880525455176
0.35460975821257
-0.00064307767499635
0.35482384377751
-0.00066507078826869
0.35504586949351
-0.00068905135208348
0.35527430150603
-0.00070846906276614
0.35551095822409
-0.00073313193037712
0.35575254293458
-0.00074808364372683
-0.00077568194079274
0.3560033850798
0.33225850250721
-1.885381392456e-05
0.33227179829539
-5.632952628581e-05
0.33229394853983
-9.4008006845739e-05
0.33232494807763
-0.00013170041120196
0.33236476942167
-0.00016931849356879
0.33241339579973
-0.00020687319067249
0.33247083678843
-0.00024442499906095
0.3325371204272
-0.00028201311089067
0.33261226968299
-0.0003196018407337
0.33269629013778
-0.00035711725331444
0.33278916154871
-0.00039445651638315
0.33289085132643
-0.00043156521670888
0.33300130974915
-0.00046837040142847
0.33312049232138
-0.00050488006695508
0.33324833278323
-0.00054100373999334
0.33338478359619
-0.00057679983075103
0.33352975114059
-0.00061209071300221
0.33368319122733
-0.00064704989751591
0.33384496386406
-0.00068131854949852
0.33401505462481
-0.00071535094429585
0.33419324135356
-0.00074837575340075
0.33437959992209
-0.00078148365064038
0.33457373806288
-0.00081294336660023
0.33477595190657
-0.00084529148987355
0.33498547233378
-0.00087459118658631
0.33520311141527
-0.00090669040440066
0.33542725699157
-0.00093261460963411
0.33565992080825
-0.00096579571764211
0.33589759822748
-0.00098576103429579
-0.0010231060610162
0.33614502237775
0.31361037866541
-2.3175061195503e-05
0.31362324552618
-6.91963466477e-05
0.31364465721526
-0.00011541965555156
0.31367459828341
-0.00016164143959282
0.31371302923844
-0.00020774940979792
0.31375993018236
-0.00025377409685882
0.31381531966344
-0.00029981444358592
0.31387924355015
-0.00034593696220352
0.31395174615433
-0.00039210441075351
0.31403285509812
-0.00043822616411053
0.31412257168973
-0.0004841730762254
0.31422088604386
-0.00052987954018744
0.31432777208062
-0.00057525640869016
0.31444321230158
-0.00062032025941113
0.31456716803257
-0.00066495944345735
0.31469962375055
-0.00070925552201206
0.31484051559666
-0.0007529825331626
0.31498983597002
-0.0007963702454869
0.31514747412854
-0.00083895668314217
0.31531345874133
-0.00088133553251699
0.3154875930553
-0.00092251004304564
0.31567000804733
-0.00096389861838689
0.31586032493312
-0.0010032602281083
0.31605891764586
-0.001043884178131
0.31626499930392
-0.0010806728199427
0.31647950666714
-0.0011211977425163
0.31670073766044
-0.0011538455774167
0.31693093232872
-0.0011959903602536
0.31716633510993
-0.0012211637903666
-0.0012689110092133
0.31741214008478
0.29600887925389
-2.7352420381627e-05
0.29602129575887
-8.161281495442e-05
0.29604193142535
-0.00013605528543577
0.29607076202118
-0.00019047199939082
0.29610773632934
-0.00024472368277033
0.29615283175833
-0.00029886949157076
0.29620607745225
-0.0003530601042295
0.29626753993507
-0.00040739941273474
0.29633728828836
-0.00046185273282618
0.29641537571977
-0.00051631356529245
0.29650182858079
-0.000570625908095
0.2965966632971
-0.00062471422832774
0.29669988126423
-0.00067847434865554
0.29681149625655
-0.00073193522543376
0.29693150178673
-0.00078496494823642
0.29705991946135
-0.00083767317194243
0.29719672046577
-0.00088978351360798
0.29734193967057
-0.00094158942682796
0.29749550141078
-0.00099251840039707
0.29765748420969
-0.0010433183087741
0.29782772299527
-0.0010927488062538
0.29800641169242
-0.0011425872932733
0.29819319118391
-0.0011900396974256
0.2983885222802
-0.0012392152521447
0.29859160511319
-0.0012837556305772
0.29880351166061
-0.0013331042673217
0.29902245035367
-0.0013727842476528
0.29925090328723
-0.0014244432709802
0.2994848560466
-0.0014551165275162
-0.0015140378169399
0.2997299828779
0.27939525043556
-3.1368306226485e-05
0.27940716114559
-9.3523493687708e-05
0.27942693139219
-0.0001558255009107
0.27945452840252
-0.00021806897913679
0.2794898891222
-0.00028008437265371
0.27953298883842
-0.00034196917881734
0.27958386883416
-0.00040394007191992
0.27964261855597
-0.00046614910738369
0.27970933451407
-0.00052856866472288
0.27978409832831
-0.00059107735421761
0.27986696436152
-0.00065349191696402
0.27995797850374
-0.00071572834705151
0.28005717312417
-0.0007776689464962
0.28016459710798
-0.00083935918740813
0.28028028049547
-0.00090064831466177
0.28040428666133
-0.00096167931735354
0.28053662707865
-0.0010221239110857
0.28067738443462
-0.0010823467633835
0.28082652435519
-0.0011416583019563
0.28098418114031
-0.0012009750751168
0.28115022879846
-0.0012587964458372
0.28132493039538
-0.0013172888716683
0.28150795545463
-0.0013730647381638
0.28169985722554
-0.0014311170044139
0.28189983391871
-0.0014837323049595
0.28210909603406
-0.0015423663636124
0.2823257776989
-0.0015894658931722
0.28255260136675
-0.0016512669194458
0.28278531761203
-0.0016878327538737
-0.0017587908127968
0.28303007062815
0.26371403944163
-3.5198271768006e-05
0.26372536360222
-0.000104847626827
0.26374414291324
-0.0001746047846455
0.26377033418155
-0.0002442602205991
0.26380386219041
-0.00031361235530883
0.26384470070699
-0.00038280766982221
0.26389290432854
-0.00045214366862348
0.26394858695939
-0.00052183171406993
0.26401187433829
-0.00059185602023796
0.2640828784541
-0.00066208144734617
0.26416168388343
-0.00073229732440002
0.264248368431
-0.00080241287341035
0.26434299837666
-0.00087229887169774
0.26444566089993
-0.00094202169085435
0.26455642643152
-0.0010114138270807
0.26467540404786
-0.0010806569150526
0.26480265048608
-0.0011493703312121
0.2649383008438
-0.0012179971034033
0.26508236845037
-0.0012857258912217
0.26523504834442
-0.001353654952114
0.26539626207287
-0.0014200101574921
0.26556634637409
-0.0014873731561966
0.26574501099822
-0.0015517293457333
0.26593290393734
-0.0016190099269652
0.26612923875564
-0.0016800671067044
0.26633536061427
-0.001748488205584
0.26654935736335
-0.0018034626255302
0.26677417352173
-0.0018760830612045
0.26700537445558
-0.0019190336716319
-0.0020029418082778
0.26724952546824
0.24891290749712
-3.8813057137651e-05
0.24892355557412
-0.00011549568095704
0.24894119997864
-0.00019224916646684
0.24896578684161
-0.00026884706123755
0.24899722865719
-0.00034505414907062
0.24903549794875
-0.0004210769400733
0.24908066342031
-0.00049730911946817
0.24913286448614
-0.00057403275971448
0.2491922572017
-0.00065124871624231
0.24925898492871
-0.00072880915534601
0.24933316384021
-0.00080647621752782
0.24941490526377
-0.0008841542791354
0.24950431149342
-0.00096170508411709
0.24960151023212
-0.0010392204128196
0.24970661540181
-0.0011165189805691
0.24981978472507
-0.0011938262225205
0.24994112462431
-0.0012707102151069
0.25007082613659
-0.0013476986006424
0.25020895659347
-0.0014238563333882
0.25035577543944
-0.0015004737835585
0.25051126093117
-0.0015754956349092
0.25067582606759
-0.0016519382783845
0.25084923486199
-0.0017251381260003
0.25103222864073
-0.0018020036915587
0.25122405905496
-0.0018718975068087
0.25142619432181
-0.0019506234582154
0.25163671618039
-0.002013984469851
0.2518587561742
-0.0020981230408818
0.25208777029447
-0.0021480477782066
-0.0022458317840134
0.25233066028489
0.23494245630541
-4.2181784010347e-05
0.23495233756575
-0.00012537692182661
0.23496869827986
-0.00020860986121719
0.23499147438465
-0.00029162314691734
0.23502056646108
-0.00037414620678079
0.23505594604475
-0.00045645650535428
0.23509769595416
-0.00053905901091675
0.23514598092668
-0.0006223177146452
0.23520098743012
-0.00070625520252886
0.23526289069737
-0.00079071240582526
0.23533183911719
-0.00087542462104593
0.23540797792389
-0.00096029306992589
0.23549144651673
-0.0010451736615036
0.23558241421754
-0.0011301880985453
0.23568104050211
-0.0012151452504735
0.23578753339258
-0.0013003190986547
0.23590205254671
-0.0013852293552682
0.23602484710109
-0.0014704931413182
0.23615604422501
-0.001555053443903
0.23629596982345
-0.0016403993687862
0.2364446683581
-0.0017241941565686
0.23660262935989
-0.0018098992673118
0.23676968686266
-0.0018921956160767
0.23694667025887
-0.0019789870751452
0.23713289705869
-0.0020581242941118
0.23732993940496
-0.0021476657920147
0.23753592432222
-0.00221996937473
0.23775411979007
-0.0023163184965832
0.23797997236212
-0.0023739003385949
-0.0024864619120689
0.23822060250261
0.22175606280731
-4.5274786025172e-05
0.22176509072878
-0.00013440482720366
0.22178002531804
-0.00022354443446069
0.22180079279727
-0.00031239061029432
0.22182728240374
-0.00040063579767367
0.22185946482146
-0.00048863890771065
0.22189743651306
-0.00057703068743808
0.22194138654479
-0.00066626773152799
0.2219915306318
-0.00075639927498773
0.22204807460904
-0.00084725636876404
0.222111198518
-0.00093854851601206
0.2221810814065
-0.0010301759446916
0.22225789978165
-0.0011219920232391
0.22234186412828
-0.0012141524320015
0.2224331803094
-0.0013064614187426
0.22253210679757
-0.0013992455741905
0.22263885886199
-0.0014919814073342
0.22275374424192
-0.0015853785090875
0.22287695493963
-0.0016782641296972
0.22300888347646
-0.0017723278938445
0.22314964985281
-0.0018649605213431
0.22329981793854
-0.001960067341579
0.2234593089187
-0.0020516865849294
0.22362903105807
-0.0021487092032798
0.22380839953124
-0.002237492756184
0.22399906423158
-0.0023383304813237
0.22419925895705
-0.0024201640892979
0.22441232323099
-0.0025293827598723
0.22463381621801
-0.0025953933154311
-0.0027235753281666
0.22487092964496
0.20930972263309
-4.8065456270623e-05
0.20931782035896
-0.00014250253952452
0.20933120241926
-0.00023692648123152
0.2093497857782
-0.00033097395579275
0.20937344888663
-0.00042429889282305
0.20940216145933
-0.00051735146722264
0.20943603249499
-0.00061090171007995
0.20947527344418
-0.00070550866778887
0.20952012710099
-0.00080125291904406
0.20957082770464
-0.00089795695976025
0.20962758501901
-0.0009953058179324
0.20969060978174
-0.0010932006950985
0.20976011460735
-0.0011914968367231
0.20983634985465
-0.0012903876673257
0.20991956699755
-0.0013896785498905
0.21001007337892
-0.0014897519439572
0.21010814086194
-0.0015900488789604
0.21021413443538
-0.0016913720712813
0.21032831473668
-0.001792444419959
0.21045113894828
-0.0018951520945568
0.21058281133632
-0.0019966328986774
0.21072396525072
-0.0021012212454178
0.21087462666087
-0.0022023479846875
0.21103576974274
-0.0023098522748861
0.21120694243507
-0.0024086654384327
0.21138983959931
-0.0025212276356128
0.21158287165032
-0.0026131961305473
0.21178937195649
-0.0027358830565953
0.21200515327468
-0.0028111746246549
-0.0029557260401189
0.21223730399615
0.19756190293642
-5.0531851975273e-05
0.19756900804926
-0.00014960764099988
0.19758073495888
-0.00024865337946202
0.19759699181348
-0.00034723079902122
0.19761764688995
-0.00044495395799607
0.19764266856308
-0.00054237312907702
0.19767217664596
-0.00064040978173947
0.19770640214008
-0.00073973415069369
0.19774561172426
-0.00084046249207421
0.19779006472894
-0.0009424099533054
0.19783999768305
-0.0010452387609905
0.19789564989369
-0.0011488528947201
0.19795726724776
-0.0012531141798756
0.19802513670664
-0.0013582571153505
0.19809955384301
-0.0014640956755304
0.19818087158457
-0.0015710696748705
0.1982694176311
-0.0016785949149918
0.19836561090423
-0.001787565334026
0.19846978296981
-0.0018966164753158
0.19858245145733
-0.0020078205719759
0.1987039124686
-0.0021180939000152
0.19883486129239
-0.0022321700594292
0.19897544624122
-0.0023429329239029
0.19912669075626
-0.0024610967804691
0.19928831248771
-0.0025702871606017
0.19946201274258
-0.0026949278813762
0.19964645492246
-0.0027976383015219
0.19984487745255
-0.0029343055781039
0.20005350373945
-0.0030198009034116
-0.0031813437786802
0.20027912148663
0.18647340332618
-5.2657798971874e-05
0.18647947098113
-0.00015567528615653
0.18648946926129
-0.00025865164975425
0.18650329793405
-0.00036105946188552
0.1865208156465
-0.00046247166055404
0.18654198882418
-0.00056354629681866
0.18656694585421
-0.00066536680183112
0.18659593369976
-0.00076872198623696
0.18662923884328
-0.00087376762559714
0.18666714142121
-0.00098031252116995
0.18670990073445
-0.0010879980641773
0.18675778039911
-0.0011967325492816
0.18681105572263
-0.0013063894933299
0.18687004556297
-0.0014172469456078
0.18693508576602
-0.0015291358685583
0.18700657031077
-0.0016425542096277
0.18708488061959
-0.0017569052139248
0.1871704840651
-0.001873168769731
0.18726378366856
-0.0019899160691193
0.18736535102996
-0.0021093879238428
0.18747558004291
-0.0022283229036014
0.18759521767943
-0.0023518076867666
0.18772455102499
-0.0024722662604672
0.18786463283093
-0.0026011785775978
0.18801538815737
-0.0027210424784452
0.18817848125548
-0.0028580209710954
0.18835290908935
-0.0029720661272251
0.1885417174319
-0.0031231139128149
0.1887417092384
-0.0032197927024838
-0.0033987893925577
0.18895915486015
0.17600722456225
-5.4433593174396e-05
0.17601222946299
-0.0001606801782326
0.17602045784155
-0.00026688001955298
0.17603180155039
-0.00037240316189344
0.17604611022611
-0.00047678032742898
0.17606334755277
-0.00058078361456717
0.17608364781663
-0.00068566705675956
0.17610726975701
-0.00079234391759873
0.17613451487805
-0.00090101273759546
0.17616567907406
-0.001011476708044
0.17620103956657
-0.0011233585475165
0.1762408790641
-0.0012365720375534
0.17628549733057
-0.0013510077505226
0.17633523927735
-0.0014669888830349
0.17639047601845
-0.0015843726003203
0.17645163581681
-0.0017037139986478
0.17651914998814
-0.0018244193759668
0.1765935275694
-0.0019475463417646
0.17667524142591
-0.0020716299165444
0.17676490850194
-0.0021990549909115
0.17686302436459
-0.0023264387574845
0.17697037499685
-0.0024591583104627
0.17708740083612
-0.0025892920913935
0.17721516088531
-0.0027289386186858
0.17735382412541
-0.0028597057106688
0.17750497045326
-0.0030091672913052
0.17766801287441
-0.0031351085409561
0.17784570029554
-0.0033008013268467
0.17803559195918
-0.0034096843593722
-0.0036064076558002
0.17824321022963
0.16612844455722
-5.5856163054836e-05
0.16613238136763
-0.00016461698070144
0.16613883169635
-0.00027333034022444
0.16614767987258
-0.00038125133001772
0.16615876710136
-0.00048786754810516
0.16617205350705
-0.00059407001213004
0.16618767636096
-0.00070128990254977
0.16620590159202
-0.00081056914049728
0.16622704043473
-0.00092215157214711
0.16625139896329
-0.0010358352283783
0.16627926683114
-0.0011512264071192
0.16631093995093
-0.0012682451489954
0.16634673668094
-0.0013868044721401
0.16638702120912
-0.0015072734027291
0.16643219366084
-0.0016295450435215
0.16648270885156
-0.0017542291808251
0.16653904203598
-0.0018807525518755
0.16660173526717
-0.0020102395644919
0.16667132803887
-0.0021412226799213
0.1667484721567
-0.0022761991005831
0.1668337660745
-0.0024117326673428
0.16692802027268
-0.0025534125009534
0.1670318402893
-0.0026931121006055
0.1671462662996
-0.0028433646218726
0.16727174487042
-0.0029851842746594
0.1674097209578
-0.003147143372129
0.16756010436587
-0.0032854919427054
0.16772523984063
-0.0034659367955694
0.16790362245347
-0.0035880669664186
-0.0038025729136824
0.16809978771764
0.15680410147481
-5.6928940927944e-05
0.1568069842857
-0.00016749978405011
0.15681168046208
-0.0002780265090252
0.15681806726687
-0.00038763812724618
0.15682597820407
-0.00049577847785463
0.15683536888617
-0.00060346068687339
0.15684637651156
-0.00071229752072368
0.15685926952145
-0.00082346214325058
0.156874363378
-0.00093724542168154
0.15689196850726
-0.0010534403506573
0.1569123810654
-0.0011716389583067
0.15693590391534
-0.0012917679919426
0.15696286745986
-0.0014137680096224
0.15699364786827
-0.0015380538040233
0.15702866686443
-0.001664564032512
0.1570683974029
-0.0017939597120772
0.15711335115114
-0.0019257062929103
0.15716409363988
-0.0020609820460921
0.15722122454361
-0.0021983535766461
0.15728541983987
-0.0023403943900471
0.15735737820286
-0.0024836910238011
0.15743791947516
-0.0026339537670534
0.15752782151746
-0.0027830141370653
0.15762808088491
-0.0029436239838623
0.15773945072601
-0.0030965541106517
0.15786318974838
-0.0032708823897366
0.15799977864444
-0.0034220808342307
0.15815104805277
-0.0036172061996033
0.15831660613423
-0.0037536250436574
-0.0039857316273443
0.15849976485267
0.14800308351181
-5.7661515860316e-05
0.1480049441847
-0.00016936044942076
0.14800793926538
-0.00028102158225026
0.14801194008138
-0.00039163893603787
0.14801677304404
-0.00050061143365152
0.14802238822797
-0.00060907586427794
0.14802891960212
-0.00071882888874412
0.14803663344686
-0.00083117598220582
0.14804584402481
-0.00094645599417269
0.14805686042209
-0.0010644567427035
0.14806997923178
-0.0011847577629358
0.14808550400929
-0.0013072927644428
0.14810377015344
-0.0014320341487869
0.14812515847327
-0.0015594421188016
0.14815010376422
-0.0016895093183773
0.14817908879093
-0.0018229447336383
0.1482126519918
-0.001959269488653
0.14825137359921
-0.002099703648436
0.14829590331098
-0.002242883283503
0.14834693174524
-0.0023914228196528
0.14840524902703
-0.0025420083012702
0.14847167251127
-0.0027003772473998
0.14854714899164
-0.0028584906140037
0.14863261221746
-0.0030290872067676
0.14872914062034
-0.0031930825110577
0.14883776451877
-0.0033795062861394
0.14895959921009
-0.0035439155237854
0.14909584973322
-0.0037534567211198
0.14924739631883
-0.0039051716274965
-0.0041544311460235
0.14941609583992
0.13969602444881
-5.8068697199454e-05
0.13969691113205
-0.00017024712424412
0.1396982842461
-0.00028239468808197
0.1397000099333
-0.00039336461561966
0.13970190906551
-0.00050251055901321
0.13970392559527
-0.00061109238796548
0.13970618713522
-0.00072109042342958
0.13970895315682
-0.00083394199926348
0.13971253142011
-0.00095003425358796
0.13971722428253
-0.0010691496017503
0.13972332301438
-0.0011908564917852
0.13973112601122
-0.0013150957584937
0.13974096641016
-0.0014418745450557
0.13975322256815
-0.0015716982741093
0.13976833280242
-0.0017046195499414
0.13978678217067
-0.0018413940991433
0.139809123701
-0.0019816110162429
0.13983594591018
-0.0021265258549683
0.13986793265527
-0.0022748700261287
0.13990578609118
-0.0024292762534137
0.13995036659189
-0.0025865888002536
0.14000249134342
-0.0027525019977518
0.14006324885738
-0.0029192481273787
0.14013351293995
-0.0030993512894406
0.14021466560494
-0.0032742351767732
0.14030750431703
-0.0034723449995159
0.14041381438418
-0.0036502255925574
0.14053409875227
-0.0038737410909181
0.14067064075866
-0.0040417136351382
-0.0043073375916604
0.14082354720379
0.13185520517199
-5.8169129546877e-05
0.13185517748496
-0.00017021942570942
0.13185502874325
-0.00028224593499094
0.13185462075103
-0.00039295661301767
0.13185376910672
-0.00050165890566583
0.13185241112108
-0.00060973439467324
0.13185066577401
-0.00071934507009103
0.13184878149474
-0.00083205771494705
0.13184705433291
-0.00094830708778949
0.13184577457509
-0.001067869840793
0.13184522318228
-0.0011903050964683
0.1318456882082
-0.0013155607822878
0.13184749384789
-0.0014436801828362
0.13185100913554
-0.0015752135599176
0.13185666624041
-0.0017102766529856
0.13186494556783
-0.0018496734247225
0.13187640072505
-0.0019930661716627
0.1318916246072
-0.0021417497354427
0.13191131265541
-0.0022945580729084
0.13193618480815
-0.0024541484051247
0.13196713179109
-0.0026175357827128
0.13200500220242
-0.0027903724093233
0.13205095353821
-0.0029651994642111
0.13210587359914
-0.0031542713523244
0.13217131476256
-0.0033396763430035
0.13224794936296
-0.0035489796035278
0.13233810220485
-0.0037403784385507
0.13244170253648
-0.003977341426709
0.13256248714687
-0.0041624982490024
-0.0044432271628431
0.13269837671554
0.12445446101029
-5.7983784840931e-05
0.12445358624117
-0.00016934463776137
0.12445203101872
-0.00028069069321207
0.12444965351632
-0.00039057909246119
0.12444626433294
-0.00049826970603342
0.12444179283513
-0.00060526288266507
0.12443634758307
-0.00071389980581249
0.12443016255897
-0.00082587268037615
0.12442351743153
-0.00094166195136958
0.12441668547444
-0.0010610378758602
0.12440993354224
-0.0011835531572832
0.12440353396751
-0.0013091612011303
0.12439779637484
-0.0014379425840637
0.12439307295631
-0.0015704901354528
0.12438978237299
-0.0017069860638209
0.12438839194927
-0.0018482829952097
0.12438944469925
-0.0019941189159603
0.12439353164234
-0.0021458366730671
0.12440133799313
-0.0023023644186093
0.12441360850775
-0.0024664189152341
0.1244312114205
-0.0026351386917099
0.12445508282537
-0.002814243811427
0.12448631831508
-0.0029964349522668
0.12452601859535
-0.0031939716321951
0.1245755820326
-0.003389239781076
0.12463600308489
-0.0036094006578176
0.12470938595225
-0.003813761308719
0.1247959328013
-0.0040638882787865
0.12490008466158
-0.0042666501115788
-0.0045618427481457
0.12501870024593
0.11746909583575
-5.753581523387e-05
0.11746744495362
-0.00016769372339905
0.11746460694163
-0.00027785264759931
0.11746043769536
-0.00038640981369087
0.11745474539617
-0.00049257737657173
0.11744744812456
-0.00059796558331115
0.11743864078357
-0.00070509243953005
0.1174285404551
-0.00081577232875502
0.11741740622774
-0.00093052770262691
0.11740549182555
-0.0010491234536487
0.11739304854321
-0.0011711098559274
0.11738032703369
-0.0012964396732788
0.11736761787445
-0.0014252334069304
0.11735524708636
-0.0015581193297474
0.11734361649358
-0.0016953554536313
0.11733316672414
-0.0018378332085466
0.117324429131
-0.0019853813058638
0.11731797383931
-0.0021393813648274
0.11731447573907
-0.0022988663024265
0.11731468311524
-0.0024666262763405
0.11731942406391
-0.0026398796264499
0.11732973273377
-0.0028245524687847
0.11734653054807
-0.0030132327556319
0.11737133845041
-0.0032187795253623
0.11740496928387
-0.0034228706071068
0.11744967825212
-0.003654109620387
0.11750572687189
-0.00386980992419
0.11757591547588
-0.0041340768791749
0.11766085059794
-0.0043515852295935
-0.0046648645425094
0.1177638723984
0.11087580390534
-5.6854779355672e-05
0.11087345619871
-0.00016534596607069
0.1108694668418
-0.00027386323790344
0.11086368999055
-0.00038063291075488
0.11085594128997
-0.00048482862674486
0.11084612523898
-0.00058814948586416
0.11083431130097
-0.0006932784576998
0.11082069675091
-0.00080215773715234
0.11080551896759
-0.00091534987959632
0.11078901661391
-0.0010326210616548
0.11077142414529
-0.0011535173500193
0.1107529642766
-0.0012779797680269
0.1107339051413
-0.0014061742356067
0.11071453854144
-0.0015387526942387
0.1106952490318
-0.0016760659087051
0.11067643393453
-0.0018190180763604
0.11065862186851
-0.0019675692054313
0.11064232689795
-0.0021230863605451
0.11062824901111
-0.0022847883828687
0.11061705954321
-0.002455436777083
0.11060963716573
-0.0026324572193565
0.11060695302672
-0.0028218683022253
0.11060990824298
-0.0030161879466413
0.1106202202133
-0.0032290914728455
0.11063812800617
-0.0034407783796236
0.1106675887241
-0.0036835703205264
0.11070595182517
-0.0039081730097588
0.11076273410432
-0.0041908591443515
0.11082436643565
-0.0044132175471583
-0.0047553735414687
0.11091487545117
0.10465259363573
-5.5982385335777e-05
0.1046496498825
-0.00016240214251828
0.10464464374391
-0.00026885702767356
0.10463744668021
-0.00037343577678728
0.10462789427206
-0.00047527615082377
0.10461588743217
-0.00057614258090613
0.10460144712879
-0.00067883809177267
0.10458472042652
-0.00078543097441526
0.10456593837815
-0.00089656777239059
0.10454534255451
-0.0010120251803942
0.10452314865345
-0.0011313233922541
0.10449954757212
-0.0012543786306577
0.10447478038666
-0.0013814069946563
0.10444909919236
-0.0015130714449445
0.10442286730578
-0.0016498339676313
0.10439642999739
-0.0017925807140872
0.10437031997845
-0.0019414591333724
0.10434496634902
-0.0020977326791397
0.10432113942776
-0.0022609614111504
0.1042993207521
-0.0024336180530889
0.10428062598766
-0.0026137624091837
0.10426558923911
-0.0028068315110226
0.10425572908747
-0.0030063277555751
0.10425181525415
-0.0032251776034334
0.10425522004221
-0.0034441831350241
0.10426854623337
-0.0036968964826938
0.10428993050047
-0.0039295572512883
0.10433307492254
-0.0042340035434076
0.1043761153474
-0.0044562579500581
-0.0048350959363602
0.10445583776837
0.098778669329495
-5.4933370142852e-05
0.098775259869438
-0.00015899259933319
0.098769353352788
-0.00026295042742205
0.098760917830785
-0.0003650001727012
0.098749794325225
-0.00046415256540243
0.098735905744801
-0.00056225392289385
0.098719272038388
-0.00066220430973294
0.098699854025406
-0.00076601288731095
0.098677940887578
-0.00087465456151482
0.098653768365202
-0.00098785258569388
0.09862752934537
-0.0011050843006113
0.098599393719334
-0.0012262429331899
0.098569575941458
-0.0013515891457189
0.098538287393045
-0.0014817828258456
0.098505852543655
-0.0016173990480701
0.098472566667209
-0.0017592947681334
0.098438947440844
-0.0019078398385327
0.098405352286906
-0.0020641374582211
0.098372597282156
-0.0022282063416761
0.098340967289846
-0.0024019879990999
0.098311853243364
-0.0025846483049186
0.098285164624184
-0.0027801428384364
0.098263508239668
-0.0029846713222705
0.098245554092171
-0.0032072234117684
0.098236485672886
-0.003435114676337
0.09823175808295
-0.0036921688584373
0.09824081568226
-0.0039386148210747
0.098254031579254
-0.0042472194141493
0.098283944117351
-0.0044861704624221
0.09838823718375
-0.0049393889725782
0.39480172509363
0.004636814303085
0.39032452468346
0.0044772004316798
0.38601144891357
0.0043130757913881
0.38186689637534
0.0041445525599718
0.37789512558239
0.0039717708150246
0.37410025729538
0.0037948683095292
0.37048626645191
0.0036139908663849
0.36705697078347
0.0034292956918201
0.3638160221781
0.0032409486291334
0.36076690083631
0.0030491213659631
0.35791291107446
0.0028539897863398
0.35525717700564
0.0026557340936344
0.35280263849119
0.0024545385394797
0.35055204694671
0.0022505915697377
0.34850796179622
0.0020440851758551
0.34667274703903
0.0018352147826732
0.34504856835032
0.0016241787141804
0.34363739011747
0.0014111782583242
0.34244097240076
0.0011964177420683
0.34146086759175
0.00098010483427235
0.34069841594699
0.0007624516698161
0.34015473943009
0.00054367654179783
0.33983072718851
0.00032401226622277
0.33972696656702
0.00010376064593548
0.33984410063475
-0.00011713404356286
0.34018241996845
-0.00033831930973042
0.3407418494405
-0.00055942944835371
0.34152216789254
-0.00078031842852125
0.34252293071384
-0.0010007627980491
0.34374346045668