/*--------------------------------*- C++ -*----------------------------------*\
| =========                 |                                                 |
| \\      /  F ield         | OpenFOAM: The Open Source CFD Toolbox           |
|  \\    /   O peration     | Version:  2112                                  |
|   \\  /    A nd           | Website:  www.openfoam.com                      |
|    \\/     M anipulation  |                                                 |
\*---------------------------------------------------------------------------*/
FoamFile
{
    version     2.0;
    format      ascii;
    arch        "LSB;label=32;scalar=64";
    class       volVectorField;
    location    "7.9";
    object      U;
}
// * * * * * * * * * * * * * * * * * * * * * * * * * * * * * * * * * * * * * //

dimensions      [0 1 -1 0 0 0 0];

internalField   nonuniform List<vector> 
22000
(
(1.0000010075659 -2.4992876684121e-05 0)
(1.0000257499152 -7.4545258223614e-05 0)
(1.0000731566855 -0.00012370034000003 0)
(1.0001442554989 -0.00017261419701735 0)
(1.000239441011 -0.00022131043095556 0)
(1.0003586188758 -0.00026968983558118 0)
(1.000501434957 -0.00031762477650772 0)
(1.0006675063865 -0.00036503713960228 0)
(1.0008565001512 -0.00041187453931504 0)
(1.0010681423237 -0.00045813549813749 0)
(1.0013021719046 -0.00050380301528941 0)
(1.0015583480675 -0.00054890875673883 0)
(1.0018363837858 -0.00059335525232835 0)
(1.0021359696391 -0.00063707952997353 0)
(1.0024566550634 -0.0006797670904002 0)
(1.0027979417961 -0.00072138694046106 0)
(1.0031591563966 -0.00076161946882964 0)
(1.0035397566112 -0.00080096244780107 0)
(1.0039391383525 -0.00083920889668937 0)
(1.0043571656894 -0.00087766300047328 0)
(1.0047936121927 -0.00091561756933393 0)
(1.0052489936137 -0.00095529888017198 0)
(1.0057232988404 -0.00099429348270613 0)
(1.0062175894211 -0.0010366591499661 0)
(1.0067315504014 -0.0010765676855986 0)
(1.0072668189099 -0.00112261568775 0)
(1.007822279416 -0.001162209300508 0)
(1.0084007584549 -0.0012141285065678 0)
(1.0089997797736 -0.0012512126963342 0)
(1.0096246922925 -0.0013139850461783 0)
(1.0000004854698 -7.372594092212e-05 0)
(1.0000254286811 -0.00022005694669068 0)
(1.0000735199473 -0.00036538943322052 0)
(1.0001456875167 -0.00051009384877503 0)
(1.0002423323826 -0.00065418991258768 0)
(1.0003634050415 -0.00079737295051101 0)
(1.0005085819924 -0.00093927070906245 0)
(1.0006774995245 -0.0010796581886061 0)
(1.000869818599 -0.001218382643705 0)
(1.0010852710625 -0.0013554359959372 0)
(1.0013235775016 -0.0014907646883561 0)
(1.0015845134645 -0.0016244533613405 0)
(1.0018677572081 -0.0017562033958936 0)
(1.0021730282641 -0.0018857962950072 0)
(1.0024997911502 -0.0020122704276939 0)
(1.0028475932887 -0.002135474873782 0)
(1.0032155848471 -0.0022544487445041 0)
(1.0036033430546 -0.0023706153003873 0)
(1.0040099490652 -0.0024834251054362 0)
(1.0044355951248 -0.0025966868095134 0)
(1.0048794789147 -0.002708472436525 0)
(1.005342892345 -0.0028252084846694 0)
(1.0058246563795 -0.0029400662491801 0)
(1.0063275273507 -0.0030645987400664 0)
(1.0068487001552 -0.00318224271202 0)
(1.007393453288 -0.0033173814809223 0)
(1.0079553534856 -0.0034343560280308 0)
(1.0085450335222 -0.0035863760927466 0)
(1.0091487438837 -0.0036967626506086 0)
(1.0097886199664 -0.0038800498111493 0)
(1.0000005264647 -0.00012096506718865 0)
(1.0000267431378 -0.00036123654287105 0)
(1.0000772054661 -0.00060006070833924 0)
(1.0001527631477 -0.00083785854333453 0)
(1.0002537216941 -0.0010746055143462 0)
(1.0003799818179 -0.0013098297448145 0)
(1.0005312007513 -0.0015429625080147 0)
(1.0007070238126 -0.0017736645166575 0)
(1.0009071084352 -0.00200169533147 0)
(1.0011312038082 -0.0022270399685048 0)
(1.0013790134789 -0.0024495967540128 0)
(1.0016503390453 -0.0026694886370002 0)
(1.0019448143114 -0.0028861931610069 0)
(1.0022622005629 -0.0030993135571109 0)
(1.0026018547795 -0.0033072055525329 0)
(1.0029633988299 -0.0035095670010565 0)
(1.0033457546936 -0.0037047516200285 0)
(1.0037486818196 -0.0038950860616118 0)
(1.0041708215559 -0.0040796439272203 0)
(1.0046128477503 -0.004264745563857 0)
(1.0050730885957 -0.0044472141876993 0)
(1.0055540092706 -0.0046377140309416 0)
(1.0060525697108 -0.0048249413768493 0)
(1.0065742393087 -0.005028030080802 0)
(1.0071120521938 -0.0052195215118495 0)
(1.0076774504324 -0.0054398279526167 0)
(1.0082546668945 -0.0056297922272232 0)
(1.0088682116377 -0.0058777794210946 0)
(1.0094835734276 -0.0060563778836165 0)
(1.0101542289187 -0.0063562228202333 0)
(1.0000005621479 -0.00016791857055304 0)
(1.0000282860224 -0.00050153126053726 0)
(1.0000816810821 -0.00083318776521444 0)
(1.000161583281 -0.0011631864990358 0)
(1.000268209542 -0.0014914706829314 0)
(1.0004013873664 -0.0018175024194079 0)
(1.000560726553 -0.0021406071434259 0)
(1.0007458702784 -0.002460388317594 0)
(1.0009564683655 -0.0027765432750291 0)
(1.0011922971493 -0.003089058556879 0)
(1.0014530426941 -0.0033977731276177 0)
(1.0017385446536 -0.0037028336532089 0)
(1.0020483777706 -0.0040034656527349 0)
(1.00238235759 -0.0042990787194326 0)
(1.0027396963695 -0.0045873132873149 0)
(1.0031201161725 -0.0048677064200561 0)
(1.0035222355614 -0.0051378787875633 0)
(1.0039460640514 -0.0054010556513879 0)
(1.0043896551894 -0.0056558621971187 0)
(1.0048543416685 -0.0059111522725127 0)
(1.0053372707416 -0.0061623999985276 0)
(1.0058425192864 -0.0064245985135014 0)
(1.0063644837998 -0.0066817991899323 0)
(1.0069123893819 -0.0069609515212562 0)
(1.0074734887427 -0.0072233222013794 0)
(1.0080678347441 -0.0075259180327901 0)
(1.0086666045475 -0.0077851286171603 0)
(1.0093138270382 -0.008125920030293 0)
(1.0099458111302 -0.0083676955583703 0)
(1.0106602906504 -0.0087810323387527 0)
(1.00000060505 -0.00021491159653408 0)
(1.0000300951815 -0.00064196938540398 0)
(1.0000869370549 -0.0010665490094246 0)
(1.0001719547545 -0.0014885927397271 0)
(1.0002852652915 -0.0019080090593321 0)
(1.0004266123971 -0.0023243112510112 0)
(1.0005955511189 -0.0027368307327769 0)
(1.0007917254392 -0.003145187024881 0)
(1.0010147825242 -0.0035490494494895 0)
(1.0012645410576 -0.0039484190731364 0)
(1.0015406785404 -0.0043430647689087 0)
(1.0018430936416 -0.0047331413593147 0)
(1.0021713051456 -0.0051175848968824 0)
(1.0025252068522 -0.0054955805693339 0)
(1.0029038503729 -0.0058639923371841 0)
(1.0033070859732 -0.0062221607054618 0)
(1.0037331734408 -0.0065668966345933 0)
(1.0041824263119 -0.0069023143604979 0)
(1.0046521865928 -0.0072265142147537 0)
(1.005144593618 -0.007550935642269 0)
(1.0056553460009 -0.0078696036389095 0)
(1.0061905190204 -0.0082019788408124 0)
(1.006741320414 -0.0085272558244791 0)
(1.0073216849173 -0.0088805056968841 0)
(1.0079115832514 -0.0092112113062133 0)
(1.0085419612697 -0.0095937249599964 0)
(1.0091674108137 -0.009918721154319 0)
(1.0098568138552 -0.010349734740633 0)
(1.0105092011175 -0.010649764762631 0)
(1.0112788949413 -0.011174530607651 0)
(1.0000006531524 -0.00026211581186679 0)
(1.0000320800492 -0.00078308150604194 0)
(1.0000927076313 -0.0013010552271084 0)
(1.0001833401866 -0.0018153624240197 0)
(1.0003039762006 -0.0023258709249722 0)
(1.0004542667396 -0.0028322736182805 0)
(1.0006337135494 -0.0033340328431415 0)
(1.0008419732819 -0.003830868144172 0)
(1.0010787037741 -0.0043224620838096 0)
(1.0013437852276 -0.0048088475272975 0)
(1.0016369017031 -0.0052897142799088 0)
(1.0019580331662 -0.0057652098419889 0)
(1.0023066537719 -0.0062339414831331 0)
(1.00268275865 -0.006694835033457 0)
(1.0030852368418 -0.0071439110719947 0)
(1.0035140921857 -0.0075802698298497 0)
(1.0039671961755 -0.0079998308988701 0)
(1.0044452122827 -0.0084075818241311 0)
(1.0049446875291 -0.0088010240927408 0)
(1.0054686901209 -0.0091942319844092 0)
(1.006011259771 -0.0095796884641089 0)
(1.0065807999033 -0.0099814555116446 0)
(1.0071647915922 -0.010373657202 0)
(1.0077827245637 -0.010799794153319 0)
(1.0084059339318 -0.011197017013375 0)
(1.0090783493035 -0.011657838085682 0)
(1.0097347057328 -0.012045788307757 0)
(1.0104737140972 -0.012565230883891 0)
(1.0111495367522 -0.012918968258656 0)
(1.0119846916353 -0.013554026201927 0)
(1.0000007036311 -0.0003095351348345 0)
(1.0000341360503 -0.000924880793624 0)
(1.0000986933608 -0.0015367326565549 0)
(1.0001951499857 -0.0021435249665638 0)
(1.0003233688608 -0.0027450831709687 0)
(1.000482900793 -0.0033414214642683 0)
(1.0006731985405 -0.0039322718201085 0)
(1.0008939454441 -0.0045175493140018 0)
(1.0011448278749 -0.0050970004001516 0)
(1.0014258094468 -0.005670713802575 0)
(1.0017366032276 -0.006238296499905 0)
(1.0020772959018 -0.0067998751848219 0)
(1.002447340131 -0.0073536905964867 0)
(1.0028468581022 -0.0078983705721432 0)
(1.0032745927977 -0.0084290240610741 0)
(1.0037307265536 -0.0089444574269501 0)
(1.0042127407107 -0.0094396175204169 0)
(1.004721685713 -0.0099203350079085 0)
(1.0052532703038 -0.010383447479155 0)
(1.0058115872549 -0.01084569196964 0)
(1.0063888658543 -0.011297937402914 0)
(1.0069961101398 -0.011768945185508 0)
(1.0076166274535 -0.012227587080992 0)
(1.0082762030181 -0.012726049055374 0)
(1.0089363341795 -0.013188633493253 0)
(1.0096558280716 -0.013726785821488 0)
(1.0103465737811 -0.014175443997921 0)
(1.0111416999761 -0.014782134636249 0)
(1.011843489038 -0.015185414056844 0)
(1.0127534368766 -0.015930283978248 0)
(1.0000007547438 -0.00035702454425978 0)
(1.0000361599746 -0.0010669327565592 0)
(1.0001045955175 -0.001772859888485 0)
(1.0002067950315 -0.0024720700820846 0)
(1.0003424696731 -0.0031643510116962 0)
(1.0005110643661 -0.0038501915994071 0)
(1.0007119903192 -0.0045297440305566 0)
(1.0009449739217 -0.0052032240414404 0)
(1.0012097527071 -0.0058705010476629 0)
(1.0015063983754 -0.0065317496740255 0)
(1.0018346827685 -0.0071864964968235 0)
(1.0021948272454 -0.0078348366382186 0)
(1.0025862969993 -0.0084746118529601 0)
(1.0030093680638 -0.0091041123234204 0)
(1.0034626705998 -0.0097174733326543 0)
(1.0039465885737 -0.010313147015251 0)
(1.004458237325 -0.010885035811265 0)
(1.0049990828523 -0.011439766942874 0)
(1.0055639907285 -0.011973466739566 0)
(1.0061581509938 -0.012505530824828 0)
(1.0067718869346 -0.013025174167203 0)
(1.0074190271948 -0.013565900451608 0)
(1.0080783455471 -0.01409120011447 0)
(1.008782566805 -0.014662118849461 0)
(1.0094822998588 -0.015189664159695 0)
(1.0102529346824 -0.015804898835118 0)
(1.0109808165307 -0.016312759974977 0)
(1.0118376719452 -0.017006264823537 0)
(1.0125675300665 -0.017455529104298 0)
(1.013560695998 -0.018310544594843 0)
(1.0000008038913 -0.00040432464438532 0)
(1.0000380513704 -0.0012084596377611 0)
(1.0001101237982 -0.0020081441172829 0)
(1.0002177010101 -0.0027991963182061 0)
(1.0003603293871 -0.0035813770264135 0)
(1.0005373447883 -0.0043558110869519 0)
(1.0007481275585 -0.0051232299104668 0)
(1.0009924647832 -0.0058842625000699 0)
(1.0012701709965 -0.0066389684928806 0)
(1.001581451423 -0.0073876448472831 0)
(1.0019261718665 -0.0081297484893354 0)
(1.0023047170251 -0.0088653366001535 0)
(1.0027166078155 -0.0095918287281359 0)
(1.0031623009039 -0.010307139012327 0)
(1.0036403622733 -0.011004379290982 0)
(1.0041513991794 -0.011681582103771 0)
(1.004692209728 -0.012331550684099 0)
(1.0052646978599 -0.01296164376177 0)
(1.0058629174903 -0.013567253627419 0)
(1.0064932109369 -0.014170389745415 0)
(1.0071439528893 -0.014758614413462 0)
(1.0078319799534 -0.015370146431024 0)
(1.0085312551624 -0.015963035905962 0)
(1.0092820035276 -0.016607257962299 0)
(1.0100230424652 -0.017200181069974 0)
(1.010847860638 -0.017893037606814 0)
(1.0116148743701 -0.018459461387408 0)
(1.0125381375118 -0.019240186293939 0)
(1.0132977837236 -0.019732686757861 0)
(1.0143816578023 -0.02069907967119 0)
(1.0000008495213 -0.00045109477613676 0)
(1.0000397150391 -0.0013484399741276 0)
(1.0001150017166 -0.0022408861805656 0)
(1.0002273233097 -0.0031225401377479 0)
(1.0003760504063 -0.0039931523862549 0)
(1.0005604087818 -0.0048546484482464 0)
(1.0007797604736 -0.0057085027851646 0)
(1.001033970631 -0.0065558753653847 0)
(1.0013229582333 -0.0073970907693979 0)
(1.0016470868963 -0.0082326106771958 0)
(1.0020063553866 -0.0090618423579536 0)
(1.0024013398259 -0.0098848034429649 0)
(1.0028316671918 -0.010698479720313 0)
(1.0032980007376 -0.011500373601099 0)
(1.0037989038172 -0.012282540860884 0)
(1.0043352273963 -0.013042526239181 0)
(1.0049035222494 -0.013772002454276 0)
(1.0055061490523 -0.014478976559625 0)
(1.0061364129355 -0.015158115017826 0)
(1.0068018519751 -0.015833952582525 0)
(1.0074888954633 -0.016492448550855 0)
(1.0082175411207 -0.017176433567877 0)
(1.0089567395433 -0.01783853961586 0)
(1.0097546989266 -0.018557626578399 0)
(1.0105376936169 -0.019217201788456 0)
(1.0114186323825 -0.019989064730081 0)
(1.0122259626656 -0.020614390441876 0)
(1.0132192878294 -0.021483688584341 0)
(1.014010060677 -0.022017693495186 0)
(1.0151911021545 -0.023097715035969 0)
(1.0000008891462 -0.00049694406182415 0)
(1.0000410644444 -0.0014857008088102 0)
(1.0001189785784 -0.0024691340744492 0)
(1.0002351667333 -0.0034393895225705 0)
(1.00038881733 -0.0043962288933012 0)
(1.0005790464395 -0.0053425422028647 0)
(1.0008052108883 -0.0062807114179441 0)
(1.0010672695698 -0.0072125472233392 0)
(1.0013652734815 -0.0081387196477601 0)
(1.0016997675126 -0.0090599021571659 0)
(1.0020709240562 -0.009975481744643 0)
(1.0024795362966 -0.010885439624331 0)
(1.0029253916877 -0.011786329971962 0)
(1.0034093838968 -0.01267521213428 0)
(1.0039301442194 -0.013543074645814 0)
(1.0044887866126 -0.014386906279096 0)
(1.0050817006199 -0.015197246984513 0)
(1.005711721307 -0.01598265295123 0)
(1.006371492731 -0.016737108885059 0)
(1.0070697865973 -0.017487543222651 0)
(1.0077911279627 -0.018218414477181 0)
(1.0085588067593 -0.018976985836639 0)
(1.0093366284435 -0.019710580465311 0)
(1.0101811998066 -0.020506782491047 0)
(1.0110056542215 -0.021235150389683 0)
(1.011943434945 -0.022088279731611 0)
(1.0127913709953 -0.022773915134687 0)
(1.0138572608744 -0.023734172567568 0)
(1.0146800823113 -0.024309167570294 0)
(1.015963579881 -0.025506196508071 0)
(1.0000009215996 -0.00054146005320561 0)
(1.0000420245598 -0.0016190044735088 0)
(1.0001218353547 -0.0026908268195534 0)
(1.0002408012873 -0.0037468831152112 0)
(1.0003979249136 -0.0047869712451174 0)
(1.0005922138946 -0.0058151041544073 0)
(1.0008230322163 -0.0068347324696584 0)
(1.0010904452537 -0.007848436043039 0)
(1.0013946619769 -0.0088573142742085 0)
(1.0017364277684 -0.0098623024596276 0)
(1.0021161281096 -0.010862805454735 0)
(1.0025347946184 -0.01185877569971 0)
(1.0029924302979 -0.012846352938377 0)
(1.0034901798856 -0.013822127774917 0)
(1.0040268176665 -0.014776034683184 0)
(1.0046037390687 -0.015704441226363 0)
(1.0052172684474 -0.016596784863838 0)
(1.0058707343411 -0.017462058995581 0)
(1.0065562241487 -0.018293649430732 0)
(1.0072837811037 -0.01912070731314 0)
(1.0080360955504 -0.019926346781276 0)
(1.0088398670659 -0.020762013547308 0)
(1.0096536858466 -0.021569921168901 0)
(1.0105429047848 -0.022446105406943 0)
(1.0114070837779 -0.023246233900476 0)
(1.0124010894605 -0.024183746697524 0)
(1.0132889204393 -0.024932215738809 0)
(1.0144285641122 -0.025986886960569 0)
(1.0152838588545 -0.026603756417492 0)
(1.0166737416712 -0.0279223583729 0)
(1.0000009448228 -0.00058423511269197 0)
(1.0000425370424 -0.0017471283196969 0)
(1.0001234008421 -0.0029039277890844 0)
(1.0002438876383 -0.0040421943508455 0)
(1.0004028145402 -0.0051617891043217 0)
(1.0005990814951 -0.0062679975608879 0)
(1.0008320704531 -0.0073654930254873 0)
(1.0011019627386 -0.0084577380870226 0)
(1.0014091481965 -0.0095463464227724 0)
(1.0017545868117 -0.010632566377384 0)
(1.0021389126562 -0.011715866556122 0)
(1.0025634113919 -0.012796182351763 0)
(1.0030283537459 -0.013869271412721 0)
(1.003535151986 -0.014931236324958 0)
(1.0040827979627 -0.015970996484561 0)
(1.004672986237 -0.01698423832099 0)
(1.0053020749322 -0.017959361127739 0)
(1.0059739082851 -0.018905675068587 0)
(1.0066801293443 -0.019816089559313 0)
(1.0074320942673 -0.020721773725985 0)
(1.0082107476363 -0.021604708381024 0)
(1.0090463056133 -0.022520208738798 0)
(1.0098921311216 -0.023405670210584 0)
(1.0108226028159 -0.024365200095252 0)
(1.0117234499663 -0.025240796467477 0)
(1.0127715988973 -0.026266590821663 0)
(1.0136975015894 -0.027081539854162 0)
(1.0149105944861 -0.028235118592012 0)
(1.0157981690199 -0.028896310717086 0)
(1.0172968029588 -0.030342193743318 0)
(1.0000009586342 -0.00062488846627985 0)
(1.0000425609512 -0.0018689306198083 0)
(1.0001235560228 -0.0031065312500993 0)
(1.0002441920694 -0.0043226776997487 0)
(1.0004030979981 -0.0055173233514959 0)
(1.0005990659146 -0.0066971632655861 0)
(1.0008315060014 -0.0078682360664396 0)
(1.0011007217369 -0.0090349922575677 0)
(1.001407302345 -0.010199643179268 0)
(1.0017524303079 -0.011363800601721 0)
(1.0021370176902 -0.012527049042638 0)
(1.0025626133315 -0.013689321857753 0)
(1.003029801399 -0.014846041065986 0)
(1.0035402729626 -0.015992808796264 0)
(1.0040933062123 -0.017117593625725 0)
(1.0046909112859 -0.01821534821891 0)
(1.0053295749081 -0.019273531858782 0)
(1.0060136832525 -0.020301646822121 0)
(1.0067345463593 -0.021292287264109 0)
(1.0075048798765 -0.022278408531074 0)
(1.0083039824991 -0.023241123031039 0)
(1.009165683578 -0.024239246490189 0)
(1.010038161712 -0.025205743412688 0)
(1.0110050201512 -0.026252304261609 0)
(1.0119380942577 -0.027207669328886 0)
(1.0130367157667 -0.028326264165579 0)
(1.0139976384588 -0.029212419259124 0)
(1.0152821787971 -0.030470288592228 0)
(1.0162011292997 -0.031180169141528 0)
(1.0178091497514 -0.03275993745484 0)
(1.0000009614073 -0.00066308125133843 0)
(1.0000420735401 -0.001983391845753 0)
(1.0001222375952 -0.003296933982493 0)
(1.0002415837792 -0.0045859739325881 0)
(1.0003985518237 -0.0058505860614558 0)
(1.000591826854 -0.0070989947702457 0)
(1.0008208560764 -0.0083387306775599 0)
(1.0010860673477 -0.0095753258050205 0)
(1.0013882617226 -0.010811668247463 0)
(1.0017288450212 -0.012049780766319 0)
(1.0021090283233 -0.013289420194977 0)
(1.0025306254504 -0.014530534946151 0)
(1.0029945701934 -0.015768270232529 0)
(1.0035028379216 -0.016997722348976 0)
(1.0040550512291 -0.018205996580196 0)
(1.0046535502806 -0.019387268143193 0)
(1.0052950346262 -0.020528186006842 0)
(1.0059844620772 -0.021638319678648 0)
(1.0067129127637 -0.022710145515024 0)
(1.0074945127579 -0.023778152859577 0)
(1.0083070199308 -0.024822903700484 0)
(1.0091879584739 -0.0259062943174 0)
(1.0100804227441 -0.026957349230236 0)
(1.0110773422751 -0.02809473212751 0)
(1.0120368128254 -0.029134570915985 0)
(1.0131805257341 -0.030350833518236 0)
(1.0141721342789 -0.031313885903046 0)
(1.0155237602829 -0.032681693281088 0)
(1.0164727769144 -0.03344687398072 0)
(1.0181891439203 -0.035168370150258 0)
(1.0000009536457 -0.00069852811959193 0)
(1.0000410693385 -0.0020896525564355 0)
(1.0001194256307 -0.0034737011732925 0)
(1.0002360208938 -0.004830102854874 0)
(1.0003891045724 -0.0061590783133553 0)
(1.0005772563858 -0.0074704802074693 0)
(1.0007999671043 -0.0087734388735847 0)
(1.0010577859522 -0.010074647517383 0)
(1.001351730718 -0.011377743145996 0)
(1.001683423744 -0.012685202470252 0)
(1.0020543864589 -0.013997012407977 0)
(1.0024666918821 -0.015313154666914 0)
(1.0029216471418 -0.01662856591873 0)
(1.0034215111571 -0.017937838300162 0)
(1.0039662945179 -0.019227320827574 0)
(1.0045586793716 -0.020490378380185 0)
(1.0051956461737 -0.021713006134267 0)
(1.0058827557923 -0.022904719881137 0)
(1.0066109471377 -0.024058107362835 0)
(1.007395808251 -0.025208926012772 0)
(1.0082136629877 -0.026337557173346 0)
(1.0091057890724 -0.027508511156867 0)
(1.0100103638549 -0.028647480688561 0)
(1.0110296179567 -0.029879354005806 0)
(1.0120083815043 -0.031008592520275 0)
(1.0131900312887 -0.032327486265287 0)
(1.0142074033985 -0.03337417246259 0)
(1.0156178220549 -0.034856494736122 0)
(1.0166005364975 -0.035692745590338 0)
(1.0184122379317 -0.037553009087988 0)
(1.0000009347282 -0.00073100809107689 0)
(1.0000395587287 -0.0021870466190709 0)
(1.0001151471545 -0.0036357189072048 0)
(1.0002275518293 -0.0050535304317628 0)
(1.0003748349597 -0.0064408696524815 0)
(1.0005554726162 -0.0078092951357378 0)
(1.0007690017731 -0.0091696237793465 0)
(1.0010160852382 -0.010529774198985 0)
(1.0012979544803 -0.011894194535943 0)
(1.0016164347354 -0.013265852176269 0)
(1.0019733578388 -0.014645019852001 0)
(1.0023710424832 -0.016031731536726 0)
(1.0028111786271 -0.017420788930916 0)
(1.0032963017485 -0.018806289900866 0)
(1.0038268359957 -0.020173947390569 0)
(1.0044058144045 -0.021516296752552 0)
(1.0050305459141 -0.022818853568872 0)
(1.0057072254283 -0.02409096933799 0)
(1.006426720062 -0.025325592820971 0)
(1.0072061253222 -0.026559480672567 0)
(1.0080204375728 -0.027773246418349 0)
(1.0089147081152 -0.02903351109169 0)
(1.009822438704 -0.030263366321904 0)
(1.0108549724307 -0.031593033712828 0)
(1.011844672988 -0.03281658953963 0)
(1.0130553302144 -0.034242898531884 0)
(1.01409206599 -0.035380867419808 0)
(1.0155523738666 -0.036982168341705 0)
(1.0165649653464 -0.03790064348962 0)
(1.0184659213971 -0.039907763488224 0)
(1.0000009058042 -0.0007603688645247 0)
(1.0000375663268 -0.002275113963701 0)
(1.0001094699452 -0.0037822156102884 0)
(1.0002163091643 -0.0052551994759378 0)
(1.0003559604425 -0.0066946375469841 0)
(1.0005267987858 -0.0081138493104648 0)
(1.0007284079174 -0.0095254036239403 0)
(1.0009615527037 -0.010938493997337 0)
(1.0012276674809 -0.012358430463052 0)
(1.001528760392 -0.013788701563398 0)
(1.0018669611791 -0.015229914669815 0)
(1.0022448137822 -0.016682175393426 0)
(1.0026643835963 -0.01814022206958 0)
(1.0031284709217 -0.019597679505608 0)
(1.0036379187124 -0.021039748235406 0)
(1.0041961186533 -0.02245813751621 0)
(1.0048007308579 -0.023838058499089 0)
(1.0054586147201 -0.025188614798122 0)
(1.0061606105459 -0.02650335849829 0)
(1.0069253537486 -0.027819801028827 0)
(1.0077266172189 -0.029119207577956 0)
(1.0086131930573 -0.030469805073497 0)
(1.0095142165111 -0.031792905339094 0)
(1.0105498289229 -0.033223061608165 0)
(1.0115408528552 -0.034545546491862 0)
(1.0127703195107 -0.036083696816684 0)
(1.0138178548384 -0.037320426216068 0)
(1.0153187711984 -0.039046626949875 0)
(1.0163539991662 -0.040056220476129 0)
(1.0183371117851 -0.042219625991802 0)
(1.0000008668998 -0.00078652500134112 0)
(1.0000351283989 -0.0023535956125362 0)
(1.0001024978122 -0.0039127583390736 0)
(1.000202495871 -0.0054345308654703 0)
(1.0003328181343 -0.006919675775398 0)
(1.0004917392634 -0.0083833037439167 0)
(1.0006788836787 -0.0098397759375625 0)
(1.0008951044863 -0.011299594773412 0)
(1.0011420217845 -0.0127689703854 0)
(1.001421805407 -0.01425194031159 0)
(1.0017368588446 -0.015749487432822 0)
(1.0020899262901 -0.017261813288246 0)
(1.0024834205069 -0.018783653548891 0)
(1.0029203911506 -0.020308196378583 0)
(1.0034020778279 -0.021820238373694 0)
(1.0039322429937 -0.023310702367935 0)
(1.0045088896127 -0.02476464021886 0)
(1.0051395798747 -0.026190887579208 0)
(1.0058151400344 -0.027583778759348 0)
(1.006555766391 -0.028981433374453 0)
(1.0073341040867 -0.030366098842579 0)
(1.0082025828685 -0.031807214563862 0)
(1.0090863504941 -0.033225097595725 0)
(1.0101138865829 -0.03475764259081 0)
(1.0110955033909 -0.03618310394429 0)
(1.0123324452122 -0.037837004347428 0)
(1.0133804513172 -0.039179557093382 0)
(1.0149119428902 -0.041037375610889 0)
(1.0159601580959 -0.042146830837807 0)
(1.0180165208855 -0.044473201004961 0)
(1.0000008196086 -0.00080945112433279 0)
(1.0000322834955 -0.0024224125277887 0)
(1.0000943436488 -0.0040272173953506 0)
(1.0001863463849 -0.0055913754518581 0)
(1.0003058126958 -0.0071158396015245 0)
(1.00045091724 -0.0086175191683084 0)
(1.0006213124793 -0.010112582764057 0)
(1.0008179195874 -0.011612855434795 0)
(1.0010425158658 -0.013125464789676 0)
(1.0012974087458 -0.014655016009968 0)
(1.0015852396295 -0.016202895324667 0)
(1.001908931595 -0.017769434675756 0)
(1.002271199541 -0.019349417680394 0)
(1.0026753318214 -0.020935661070376 0)
(1.0031229111883 -0.022512641632337 0)
(1.0036180920313 -0.024070589610381 0)
(1.004159168762 -0.025594470907789 0)
(1.0047544594361 -0.027092936478271 0)
(1.0053947391868 -0.028561119600428 0)
(1.0061017852029 -0.030037819240261 0)
(1.0068471899267 -0.03150631778224 0)
(1.0076868408838 -0.03303724715429 0)
(1.0085423858549 -0.034550365441052 0)
(1.0095498701258 -0.0361862773502 0)
(1.0105105739989 -0.037717932888184 0)
(1.01174212481 -0.039490564680596 0)
(1.0127791830087 -0.040945616652844 0)
(1.0143289131114 -0.042942614404647 0)
(1.0153829002183 -0.044158748866801 0)
(1.017488260097 -0.046656982778182 0)
(1.0000007632981 -0.00082917660603801 0)
(1.0000290708223 -0.0024816413530114 0)
(1.0000851249268 -0.0041257147452029 0)
(1.0001681044316 -0.005725923210177 0)
(1.000275368421 -0.0072834053757789 0)
(1.0004049917131 -0.0088168634378436 0)
(1.0005566412982 -0.010344273078743 0)
(1.0007312901138 -0.011878781282421 0)
(1.0009308377554 -0.013428437061835 0)
(1.0011576982432 -0.014998416261287 0)
(1.0014146927473 -0.016590511364956 0)
(1.0017048900954 -0.01820520395367 0)
(1.002031242951 -0.019837352093697 0)
(1.0023972676454 -0.021479479176632 0)
(1.0028048300254 -0.023115812680923 0)
(1.0032585029923 -0.024736045231206 0)
(1.0037568262957 -0.026325077375195 0)
(1.0043089033745 -0.027891579758695 0)
(1.004905427343 -0.029431293803039 0)
(1.0055696774977 -0.03098405495884 0)
(1.006272330063 -0.032533732697894 0)
(1.0070723084938 -0.034152830709396 0)
(1.0078886143721 -0.035760009342528 0)
(1.0088632546199 -0.037499312303891 0)
(1.0097916086256 -0.039138500312878 0)
(1.0110022934305 -0.041031823908486 0)
(1.0120178822023 -0.042603969394794 0)
(1.0135677268474 -0.044747572594038 0)
(1.0146193101687 -0.046075098789245 0)
(1.0167533810223 -0.048753351077844 0)
(1.0000006976549 -0.00084580088600892 0)
(1.0000255500128 -0.0025315396674574 0)
(1.0000750028582 -0.0042086306858257 0)
(1.0001480891704 -0.0058386608558026 0)
(1.0002420100099 -0.007422952574684 0)
(1.0003547324503 -0.0089819851268297 0)
(1.0004859275842 -0.010535525902369 0)
(1.0006366044628 -0.012098029376928 0)
(1.0008087546329 -0.013678475156156 0)
(1.0010048791874 -0.015282618735469 0)
(1.0012279305827 -0.016912676754966 0)
(1.0014810737475 -0.018569288885974 0)
(1.001767431283 -0.020247406150011 0)
(1.002090677546 -0.021939293593241 0)
(1.0024529460223 -0.023628986236709 0)
(1.0028591301632 -0.025305730208835 0)
(1.0033081543691 -0.026954380403162 0)
(1.0038096538783 -0.028583786932606 0)
(1.0043546598906 -0.030190105300704 0)
(1.0049672147663 -0.031814649799206 0)
(1.0056181023419 -0.033441167848105 0)
(1.0063675085404 -0.035145297862071 0)
(1.007134357414 -0.036842778921095 0)
(1.0080625270096 -0.038684144930571 0)
(1.0089480249899 -0.040428160555333 0)
(1.0101204145819 -0.042443112614676 0)
(1.011105607161 -0.044132371583678 0)
(1.0126322790684 -0.046423450402727 0)
(1.0136713601285 -0.047863988082554 0)
(1.0158217393758 -0.050728222223635 0)
(1.0000006248902 -0.00085956815239527 0)
(1.0000218736495 -0.0025727763464547 0)
(1.0000643305476 -0.0042769565070951 0)
(1.0001268984581 -0.0059308425749177 0)
(1.0002066131846 -0.0075359510320191 0)
(1.0003013232234 -0.009114506237055 0)
(1.0004107021004 -0.010688023161967 0)
(1.0005357688214 -0.012272230194599 0)
(1.000678542603 -0.013877036285342 0)
(1.0008415843825 -0.015508767391134 0)
(1.001027959656 -0.017170104869359 0)
(1.0012408865312 -0.018861867521162 0)
(1.0014836697427 -0.020579226893716 0)
(1.0017600184776 -0.022314263724678 0)
(1.0020725231762 -0.024051028369006 0)
(1.0024260185922 -0.025778297765682 0)
(1.0028203965966 -0.02748103511658 0)
(1.0032646896602 -0.029167955712051 0)
(1.0037518969316 -0.030835752753712 0)
(1.0043040417562 -0.03252685177052 0)
(1.0048961058241 -0.034225049243752 0)
(1.0055831566955 -0.036009434128352 0)
(1.0062933931852 -0.037791695771432 0)
(1.0071585246236 -0.039732591034039 0)
(1.0079956746834 -0.041574292456395 0)
(1.00910592922 -0.043715135505621 0)
(1.0100624964142 -0.045509419581046 0)
(1.0115297783576 -0.047964322364425 0)
(1.0125727754334 -0.049494662757189 0)
(1.0146856057425 -0.05259213358773 0)
(1.0000005457062 -0.00087101711028233 0)
(1.0000182506277 -0.0026069735754365 0)
(1.0000535756438 -0.0043332792440995 0)
(1.0001052558195 -0.0060061471707475 0)
(1.000170161522 -0.0076272862089912 0)
(1.0002460267833 -0.0092206415951657 0)
(1.0003325252029 -0.010809425061328 0)
(1.0004306721969 -0.012410572804548 0)
(1.0005423926737 -0.014035068308803 0)
(1.0006703995792 -0.015689635726028 0)
(1.0008178163404 -0.017377398809089 0)
(1.0009877979993 -0.019099273715655 0)
(1.0011837962221 -0.020850762918813 0)
(1.0014093637417 -0.022623881990449 0)
(1.001667883537 -0.024403150628689 0)
(1.0019637472787 -0.026176953507959 0)
(1.0022988791256 -0.027931159540423 0)
(1.0026800564825 -0.029673786486448 0)
(1.0031048290284 -0.031403549457599 0)
(1.0035882296639 -0.03316175525656 0)
(1.004116705606 -0.034935929080918 0)
(1.0047275551846 -0.03680357062721 0)
(1.0053777176011 -0.038680269043009 0)
(1.0061560167574 -0.040727846322979 0)
(1.0069475439832 -0.042683912201129 0)
(1.0079528841473 -0.04496796260206 0)
(1.0089035484278 -0.046889550976464 0)
(1.0102326965985 -0.049559241002249 0)
(1.0113762627608 -0.051186786174376 0)
(1.0133439897452 -0.054824156413259 0)
(1.000000424762 -0.00088156530070298 0)
(1.0000140838174 -0.0026387603526349 0)
(1.0000419327327 -0.0043866386075378 0)
(1.0000822916373 -0.006078771132561 0)
(1.0001320236106 -0.0077167461877469 0)
(1.0001888025501 -0.0093263013691412 0)
(1.000252346437 -0.010932412004151 0)
(1.0003236024385 -0.01255322151399 0)
(1.0004046485587 -0.014200710154019 0)
(1.0004978233965 -0.015882526111692 0)
(1.0006062564901 -0.017602190063496 0)
(1.0007329445635 -0.019360617089458 0)
(1.0008812116668 -0.021153488895734 0)
(1.0010540488429 -0.022972501870204 0)
(1.00125533787 -0.024802729064986 0)
(1.0014888827309 -0.0266320216096 0)
(1.0017592211588 -0.02844795907581 0)
(1.0020708114437 -0.030257565824061 0)
(1.002427689908 -0.032064317272343 0)
(1.0028359178613 -0.033906162121976 0)