/*--------------------------------*- C++ -*----------------------------------*\
| =========                 |                                                 |
| \\      /  F ield         | OpenFOAM: The Open Source CFD Toolbox           |
|  \\    /   O peration     | Version:  2112                                  |
|   \\  /    A nd           | Website:  www.openfoam.com                      |
|    \\/     M anipulation  |                                                 |
\*---------------------------------------------------------------------------*/
FoamFile
{
    version     2.0;
    format      ascii;
    arch        "LSB;label=32;scalar=64";
    class       volScalarField;
    location    "9.2";
    object      p;
}
// * * * * * * * * * * * * * * * * * * * * * * * * * * * * * * * * * * * * * //

dimensions      [0 2 -2 0 0 0 0];

internalField   nonuniform List<scalar> 
22000
(
0.00020155721282541
0.00017950154178109
0.00013396905067446
6.3775873695799e-05
-3.1589550179467e-05
-0.00015205731712631
-0.00029730097395454
-0.00046696426795153
-0.00066074228369694
-0.00087837627573398
-0.001119613667063
-0.0013841661209056
-0.0016716966440692
-0.0019818195956837
-0.0023141148450324
-0.0026681231778145
-0.0030433607300265
-0.0034392986646962
-0.0038553921232908
-0.004291034642118
-0.0047456238467095
-0.0052184617688338
-0.0057089041081425
-0.0062161383360465
-0.0067395193090571
-0.0072780652177884
-0.0078312221906759
-0.0083977125093988
-0.0089772880503514
-0.0095681441051948
0.00061547468718976
0.00059204560125435
0.00054465826725608
0.00047224884752601
0.00037428084387488
0.00025075549648695
0.00010194295385881
-7.1829839104782e-05
-0.00027026734856824
-0.00049311100241262
-0.0007401078906624
-0.0010109715603055
-0.0013053709523407
-0.0016229266145121
-0.0019632266757414
-0.0023258157039646
-0.0027102165871203
-0.0031158975084649
-0.0035423195644625
-0.0039888635775464
-0.0044549373384089
-0.0049398157434254
-0.005442878043992
-0.005963257204254
-0.0065003660828501
-0.007053110799316
-0.0076210910199868
-0.0082028051733827
-0.0087983972530898
-0.0094057098251858
0.001376846930214
0.001352283419283
0.0013027011696818
0.0012270850109355
0.0011249328245675
0.00099624935035055
0.00084129029349927
0.00066036427346857
0.00045375093233241
0.00022169745322181
-3.5553248547547e-05
-0.00031772401007078
-0.00062449527964686
-0.00095549650355853
-0.0013103271676388
-0.0016885359641485
-0.0020896564841323
-0.0025131519980362
-0.0029584957836342
-0.0034250476773281
-0.0039122353395378
-0.0044192838557033
-0.0049456146617181
-0.0054902545578563
-0.0060527199666005
-0.0066316871435043
-0.0072270290991771
-0.0078367515603172
-0.0084617093012291
-0.0090989222820572
0.0024407013287561
0.0024148186888722
0.0023625760724016
0.0022829174945914
0.0021753295105211
0.0020398195326947
0.0018766435034469
0.0016861011579413
0.0014684552492756
0.0012239341147951
0.00095276111730542
0.00065519566174987
0.00033153742259043
-1.7859170081594e-05
-0.00039261406372768
-0.00079228678514473
-0.001216431930161
-0.0016645116277867
-0.0021360229983924
-0.0026303018306216
-0.0031468107647253
-0.0036847090644648
-0.004243485323032
-0.0048220197133043
-0.0054199859865778
-0.0060357397612908
-0.0066695656732632
-0.0073187884925896
-0.0079853295263229
-0.0086650749392013
0.003768853371132
0.0037414250094238
0.0036860554382722
0.0036016291468131
0.0034876055562877
0.0033439850238701
0.0031710181778594
0.002968990519635
0.002738139619031
0.0024786638024732
0.0021907536244093
0.0018746371705588
0.0015305796498874
0.001158905575829
0.00075995887019334
0.00033415589591505
-0.00011809603440264
-0.00059626872033382
-0.0010999022077157
-0.0016283130396105
-0.0021810221677878
-0.0027571159837112
-0.0033561841382249
-0.0039769298027595
-0.0046192459855332
-0.0052810853621315
-0.0059632806194265
-0.0066622793460803
-0.0073813824053992
-0.0081149776604229
0.005328206104216
0.0052990784617021
0.0052402689809187
0.0051505954454764
0.0050294827598113
0.0048769149458679
0.0046931261345107
0.0044783748226467
0.0042328589318422
0.0039567311359398
0.0036501319454623
0.0033132400095217
0.0029462660342637
0.0025494846644728
0.0021231813069022
0.0016677278305795
0.0011834688825323
0.0006709044140952
0.00013042432235641
-0.00043728174795975
-0.0010318246082976
-0.0016522191276067
-0.0022981972698953
-0.0029682620334647
-0.0036625921032986
-0.0043786597665743
-0.0051179813696295
-0.0058759363042859
-0.0066575158243393
-0.0074552691346079
0.0070891452130687
0.0070582539823115
0.0069958698349521
0.0069007381726038
0.0067722427787562
0.0066103416012143
0.0064152391219944
0.0061871509774253
0.0059262173315686
0.0056325256588419
0.0053061450146286
0.0049471818922638
0.0045557672405409
0.0041320999970669
0.0036763781103811
0.0031889014355297
0.0026699196747361
0.0021198777143715
0.0015390595699706
0.00092813877406833
0.00028737373242738
-0.00038219014183063
-0.0010804779251164
-0.001805780123738
-0.0025586369341159
-0.0033359752810258
-0.004140140605101
-0.0049652708037495
-0.0058183679612051
-0.0066898347331103
0.0090242742670473
0.0089916438318737
0.0089257284497848
0.0088251976904955
0.0086893879958595
0.0085182203921189
0.0083118546332417
0.0080704452765511
0.0077940538725578
0.0074826799634706
0.0071362960415379
0.0067549094250913
0.0063385410531842
0.0058872825686269
0.0054012090241371
0.0048805134667792
0.0043253103870722
0.0037359539324142
0.0031125769282649
0.0024558040053989
0.001765711100448
0.0010433804998739
0.00028863167875529
-0.00049661422447294
-0.0013133462841666
-0.002157895852519
-0.0030335928656023
-0.0039331795062337
-0.004865997299108
-0.0058200280211801
0.011107611063502
0.011073352947548
0.011004125462032
0.010898521295891
0.010755823724752
0.010575904926535
0.010358863214664
0.010104772084798
0.0098135916877015
0.0094852085812509
0.0091194707063909
0.0087162556383384
0.0082754398284165
0.0077969710353027
0.0072807602707738
0.0067268523163763
0.0061351788448811
0.0055059589509603
0.0048391198755525
0.0041351935572525
0.0033940108167645
0.0026166537804484
0.0018026111686218
0.0009539982722666
6.9276054607534e-05
-0.00084725861487608
-0.0018000853695899
-0.0027804157864723
-0.0038002627434197
-0.0048449589068914
0.013314144068111
0.013278452990136
0.01320630090814
0.013096204623537
0.01294738878078
0.012759664207596
0.012533050244519
0.012267518584338
0.011962904409777
0.011618955162152
0.011235364680662
0.0108118480061
0.010348099788626
0.0098438835924408
0.0092989009219212
0.0087130011684812
0.0080858795750012
0.0074175676238061
0.0067077249199244
0.0059567355155938
0.0051641134838825
0.0043308887846781
0.0034561331395148
0.0025421200779732
0.0015866434801983
0.00059463569958434
-0.00043971602934322
-0.0015059941061497
-0.0026192136808083
-0.0037618792818373
0.015619650046283
0.015582797201444
0.015508263066183
0.015394491255172
0.015240642737501
0.015046454654914
0.014811850329124
0.014536679594974
0.014220629745849
0.013863283320228
0.013464150479076
0.013022750291161
0.012538557234718
0.012011108259988
0.011439847583924
0.010824377660818
0.010164100049286
0.0094587979222228
0.0087077967841892
0.0079112639265377
0.0070683211343332
0.0061798740413343
0.0052444890266421
0.004264536770219
0.0032370261628238
0.0021675012952866
0.0010486241462487
-0.00010752282694388
-0.0013193226875536
-0.0025663596689953
0.018000696845333
0.017963020123971
0.01788678239564
0.01777035789226
0.017612839390984
0.01741387906712
0.017173288977229
0.016890779260779
0.01656586862303
0.016197950812788
0.015786324437637
0.015330280320483
0.014829035520982
0.014281857752494
0.013687886588822
0.013046422938868
0.012356517730497
0.011617636135105
0.01082870576756
0.0099895875569068
0.00909894597217
0.008157449848245
0.0071630958922494
0.0061182311223997
0.0050189988267462
0.0038714683407776
0.0026666541384589
0.0014182146570331
0.00010421406537599
-0.0012525315842979
0.020434768271501
0.020396659878546
0.020319508499869
0.020201623201915
0.020042024908591
0.01984027178792
0.019596052512018
0.019308923015967
0.018978216179114
0.018603116526899
0.018182686851128
0.017715960671776
0.017201863945916
0.016639354616846
0.01602722358599
0.015364414786507
0.014649575266536
0.013881775714773
0.013059487814708
0.012182159154004
0.01124794128884
0.010257121230639
0.0092070764394137
0.008099947395824
0.0069309861293891
0.0057065180324974
0.0044160972336328
0.0030743373143793
0.001656543391327
0.00018686704428078
0.022900462139586
0.022862352157307
0.022785158533739
0.022667128673746
0.022507209697278
0.02230486036328
0.02205963773581
0.021770932926217
0.021437880126082
0.021059439096103
0.020634417859557
0.020161568941737
0.019639498881744
0.019066820860204
0.018441937208828
0.017763385765662
0.017029355454952
0.016238457055235
0.015388633062716
0.014478835627541
0.013506606934004
0.012471745861444
0.011370910879074
0.010205848574895
0.0089709122934066
0.0076722849831753
0.0062982667111069
0.0048638725942023
0.0033422623824602
0.0017586136170056
0.025377724391168
0.025340065447935
0.025263744095948
0.025146956299167
0.024988578739958
0.02478796902871
0.024544547546172
0.024257533512454
0.023925854416261
0.023548235836087
0.023123218904806
0.022649258704782
0.022124621306875
0.021547548035634
0.020916019579883
0.020228127170771
0.019481552126807
0.018674388795379
0.017803977903138
0.016868701976423
0.015865391466761
0.014793263002124
0.013648121458387
0.012431204326281
0.011135788555545
0.0097678181149902
0.0083140481065166
0.0067899305930026
0.0051658897393219
0.0034681231117771
0.027848051285555
0.027811302937055
0.027736780946348
0.027622645953804
0.027467712343931
0.027271238091285
0.027032505322925
0.026750559605664
0.026424120229007
0.026051675877391
0.025631495691671
0.025161729100709
0.024640289578772
0.02406502944983
0.023433484178587
0.022743268680793
0.021991516329803
0.021175759022845
0.020292671282897
0.01933999887475
0.018313765205788
0.017212510063269
0.016031057480022
0.014770009288824
0.01342140515714
0.011990796466513
0.010463152242257
0.0088541849158876
0.0071311191934621
0.005320789824566
0.030294662422606
0.030259276055585
0.030187465948317
0.030077376991542
0.029927772654345
0.029737815786035
0.029506652528141
0.029233158033367
0.028915848354998
0.028552980570492
0.028142555642896
0.027682418008178
0.027170125747066
0.026603135860524
0.025978526624081
0.025293419494553
0.02454437231692
0.023728321353244
0.022841223707989
0.021880132978712
0.020840180369272
0.019719143898343
0.018510734931993
0.017214802370032
0.015821963995029
0.014337239672951
0.012743572753707
0.01105674067897
0.0092403082207987
0.007321154852827
0.032702641951097
0.03266904783017
0.032600821496856
0.032496113689797
0.032353651316856
0.032172510354835
0.031951707367126
0.031689955088491
0.031385577067346
0.03103661072244
0.030640800836861
0.030195697483457
0.029698512024175
0.029146310844528
0.02853571606141
0.027863351329501
0.02712518753277
0.026317545365184
0.025435631894751
0.024475766284578
0.023432121036248
0.022301644133201
0.021076806589653
0.019756607710707
0.018330013332132
0.016801393350215
0.015151361855414
0.013395661881041
0.011493706840328
0.009471934890725
0.035059022898305
0.035027620515104
0.034963787539851
0.034865702783747
0.034732072882832
0.034561899461726
0.034354081734962
0.034107183369766
0.033819351019779
0.033488419384266
0.033111896159103
0.032687055803622
0.032210782694668
0.03167976893329
0.031090196398144
0.030438198923658
0.02971916811376
0.028928802482483
0.028061550383476
0.027112965456079
0.026076223356762
0.024947385944878
0.023717589016242
0.022384917555736
0.020936440667056
0.019375803244149
0.017680728229214
0.015866959492277
0.013889016529391
0.011772768538726
0.037352806746412
0.037323961378123
0.037265257130874
0.037174920422535
0.037051655819317
0.036894407546367
0.036701973913671
0.036472786733363
0.036204836780283
0.035895778851506
0.035542910560141
0.035143256721882
0.034693405009994
0.034189697664405
0.033627907623598
0.033003696769014
0.032311907045005
0.031547617659974
0.030704542281266
0.029777442965561
0.02875850720821
0.027642838608179
0.026420223665062
0.025087724142399
0.023630474917203
0.022051224358429
0.020324475290678
0.018465413204984
0.016422377324644
0.014222002356474
0.039574915453851
0.03954896114753
0.039496047503415
0.039414455723545
0.039302911252453
0.039160328834062
0.038985426657194
0.038776518979074
0.038531460107803
0.038247750542094
0.037922514028692
0.037552559623427
0.037134221827881
0.036663526255172
0.036135887431667
0.035546519014208
0.034889771310886
0.034160105500755
0.033350570360048
0.032455097041176
0.031464971960508
0.030374223356522
0.029171384485893
0.027852259548279
0.026400207304583
0.024816906680051
0.023073989281522
0.021185526618001
0.019092077487136
0.01681605822159
0.041718098325565
0.04169530684966
0.041648755257708
0.041576772801557
0.041478123744982
0.041351722081467
0.041196229952418
0.041009862801625
0.040790362488804
0.040535099983349
0.040241062777369
0.039904874805223
0.039522664806526
0.039090177397848
0.038602540926729
0.038054550482542
0.037440164369726
0.03675321652101
0.035986235193885
0.035132228050952
0.034181819345122
0.033127711918725
0.031957567153196
0.030665369463275
0.02923312084165
0.027660625312973
0.025917308741522
0.024017594327619
0.021893924176011
0.019562498150046
0.043776938047333
0.043757376347505
0.043717469015073
0.043655669851474
0.043570838986928
0.043461871550811
0.043327336394838
0.043165338730464
0.042973547856263
0.04274925744201
0.042489377921243
0.042190383150019
0.041848237945975
0.041458423211237
0.041015838120158
0.040514864985502
0.039949182084886
0.039311955734924
0.038595408871775
0.037791429288341
0.036890432060344
0.035883228413494
0.034757633253477
0.033504417143693
0.032106228866044
0.030557504246084
0.0288278622979
0.026926989721271
0.024787342203182
0.022427959054377
0.045748115602415
0.045731603729923
0.045698012866243
0.045646176654539
0.045575290147886
0.04548430807586
0.045371601078426
0.045235056038341
0.045072220071525
0.044880343132321
0.044656282690672
0.044396414161301
0.044096622097208
0.043752197219375
0.043357869622856
0.042907604993202
0.042394822916192
0.041811924338431
0.041150923953747
0.040402310712604
0.039556684394534
0.038602095428873
0.037527942870476
0.036319227903364
0.034964034117323
0.033443971769436
0.031740608441477
0.029832747859165
0.027670154845091
0.025246093821282
0.047630796547399
0.047617558537811
0.047590035781316
0.047547803112581
0.047490183936792
0.047416788188325
0.04732588553042
0.047215267148292
0.047082438906043
0.046924468112128
0.046737946005731
0.046519065345186
0.046263676592644
0.045967065863036
0.045624023779919
0.045228346501971
0.044773311116842
0.044250653286403
0.043652135673542
0.042966914191181
0.042185761550134
0.041293940922844
0.040282776721803
0.039130684957015
0.037833830567091
0.036356923405814
0.034709146589951
0.032819406768023
0.030691872657383
0.028083767795338
-0.010133478355189
-0.010670809265484
-0.011215931270908
-0.011767723072326
-0.01232522657579
-0.012887660164329
-0.013454311352231
-0.014024469263571
-0.014597410844463
-0.015172392728885
-0.015748647745434
-0.016325398572181
-0.016901875401716
-0.017477321382081
-0.018050989339997
-0.018622140636148
-0.019190048392626
-0.019754000847131
-0.020313303171807
-0.020867278050816
-0.021415265610464
-0.021956621038032
-0.02249070916781
-0.023016897857993
-0.023534565728799
-0.024043258162196
-0.024542581602424
-0.025032028576073
-0.025511057537413
-0.025979160032634
-0.026435882364111
-0.026880813296942
-0.027313570501806
-0.027733790029095
-0.028141130655747
-0.028535266124504
-0.028915897692986
-0.029282735402892
-0.029635526703673
-0.029974012432235
-0.030297992442757
-0.030607225936563
-0.030901582194611
-0.031180812562869
-0.031444895563003
-0.031693516522507
-0.031926864212687
-0.032144447656151
-0.032346935619614
-0.032533553911305
-0.0099838170516829
-0.010530207206531
-0.011085339584419
-0.011647188977591
-0.012214480499218
-0.012786558806742
-0.013362930188277
-0.01394304247769
-0.014526264437418
-0.015111883790602
-0.015699122103697
-0.016287184985067
-0.016875298949733
-0.017462707476273
-0.018048653574064
-0.018632376012927
-0.019213116457931
-0.019790125172941
-0.020362663152306
-0.020930004441092
-0.021491440392293
-0.022046286837331
-0.0225938955217
-0.023133669046541
-0.023665060737822
-0.024187381750851
-0.024699916676259
-0.025202115650924
-0.025693507805024
-0.026173637775656
-0.026642053708316
-0.027098314975191
-0.027542009328108
-0.027972750080951
-0.028390186759529
-0.028793987598255
-0.029183862144445
-0.029559524953329
-0.029920748404997
-0.030267283574037
-0.030598977613157
-0.030915597141971
-0.031217088730523
-0.031503185253765
-0.031773988626917
-0.032029085294664
-0.032268849757126
-0.032492438655289
-0.032700642947036
-0.03289129029643
-0.009703236571576
-0.010273149857713
-0.010854022747435
-0.011441760930969
-0.012034197165336
-0.012630753147395
-0.013231260606815
-0.013835396665599
-0.014442634396602
-0.015052257146263
-0.015663413271261
-0.016275237404226
-0.016886924699708
-0.017497709092678
-0.0181068180758
-0.018713463922458
-0.019316858984811
-0.019916226223268
-0.02051080130977
-0.021099834847271
-0.021682596620658
-0.022258377825275
-0.022826488711355
-0.023386250274357
-0.023936985788547
-0.024478075794166
-0.025008954774698
-0.025529078774102
-0.026037937337648
-0.026535048810681
-0.027019961861167
-0.027492250788683
-0.027951527816518
-0.028397431862461
-0.028829648532101
-0.029247879742257
-0.029651885176741
-0.030041418405965
-0.030416319650369
-0.030776377923876
-0.031121532599238
-0.031451570827783
-0.031766572084427
-0.03206623920217
-0.032350885263036
-0.032619930308451
-0.032874089752869
-0.033111920459564
-0.033334501793545
-0.03353714392924
-0.0093081892069859
-0.0099148849981831
-0.010535526577388
-0.011162729531964
-0.011792978986048
-0.012425870512749
-0.013061780294084
-0.013700754812408
-0.014342429361829
-0.014986089832671
-0.015630795138969
-0.016275600590072
-0.016919684168173
-0.017562297427134
-0.018202678259933
-0.018840033425115
-0.019473564799824
-0.020102485876485
-0.020726022367306
-0.02134341290986
-0.021953913930224
-0.022556803486619
-0.023151383982221
-0.023736986546744
-0.02431297943379
-0.024878760275161
-0.025433755335385
-0.025977427693061
-0.026509279181892
-0.027028846668544
-0.0275357090109
-0.028029474790598
-0.028509798730957
-0.028976362307248
-0.029428906974665
-0.029867183774316
-0.030291021014238
-0.030700222839709
-0.031094718079948
-0.031474341352873
-0.031839151320869
-0.032188954926808
-0.032524006187682
-0.03284395652794
-0.033149400021894
-0.033439508430072
-0.033715443221305
-0.033974867500509
-0.034219160464527
-0.034439844664057
-0.008807920256519
-0.0094630644739039
-0.010135995553586
-0.010814804761144
-0.011494193632766
-0.012174063616
-0.01285558031855
-0.013539302134204
-0.01422507106685
-0.014912167746664
-0.015599534455568
-0.016286128873136
-0.016971114684351
-0.017653775466342
-0.018333371574486
-0.019009110609499
-0.019680188435857
-0.02034581454956
-0.021005211802783
-0.021657616564633
-0.022302285991998
-0.022938503631613
-0.023565582353222
-0.024182865780462
-0.024789731113393
-0.025385591443013
-0.025969899018966
-0.026542142813288
-0.027101856268972
-0.027648611412083
-0.028182030160002
-0.028701767892496
-0.029207540079398
-0.029699089302132
-0.03017623188507
-0.030638784259026
-0.031086665670585
-0.031519750889041
-0.031938085197154
-0.032341566756112
-0.032730406913281
-0.033104445748434
-0.033464157684774
-0.033809140623703
-0.034140337555209
-0.034456622678427
-0.034759707471157
-0.035046156126999
-0.035317720233921
-0.035561184163119
-0.0082080486643833
-0.0089224895571707
-0.0096596009136851
-0.010401588420814
-0.011140890622155
-0.011877854755213
-0.012614696808398
-0.013352629256847
-0.014091731051845
-0.014831254680968
-0.015569988793888
-0.016306768953045
-0.01704074252772
-0.017771235334566
-0.01849753874753
-0.019218864407382
-0.019934403762599
-0.020643365068568
-0.021344972454555
-0.022038465165585
-0.022723106517174
-0.023398190003444
-0.024063041996902
-0.02471702160562
-0.025359525367651
-0.025989994350815
-0.026607915536679
-0.027212816239123
-0.027804278009122
-0.028381925396758
-0.028945439998115
-0.029494539824959
-0.030029019712807
-0.030548701926771
-0.031053498396306
-0.031543311920246
-0.032018178456204
-0.032478068158301
-0.032923172122271
-0.033353477861943
-0.033769385255026
-0.034170793176956
-0.034558443108064
-0.034931897616712
-0.035292514289092
-0.035638862544478
-0.035973300816891
-0.036291176122286
-0.036594679715972
-0.036865124357907
-0.0075117731392571
-0.0082959553152783
-0.0091088932941408
-0.0099253632407049
-0.010735021826763
-0.011538836677483
-0.012340374455611
-0.013141656319949
-0.013943019484772
-0.014743653419835
-0.015542150349098
-0.016337198282488
-0.017127926318871
-0.017913712096392
-0.018693885064001
-0.019467662054427
-0.020234229103179
-0.020992793028578
-0.021742580029872
-0.022482833475443
-0.023212824506844
-0.02393185874245
-0.024639279464173
-0.025334467031869
-0.026016846568089
-0.026685894705614
-0.027341142286227
-0.027982165187219
-0.028608601325721
-0.029220135553975
-0.029816523259579
-0.030397563117988
-0.030963146206993
-0.031513188867457
-0.032047716215173
-0.032566740574066
-0.033070439599795
-0.033558905303723
-0.034032501866846
-0.034491338138994
-0.034936036990735
-0.035366592896146
-0.035784057202728
-0.03618799696943
-0.03658024205618
-0.03695908869706
-0.037327616229779
-0.037679910886249
-0.038018628059589
-0.03831907748288
-0.0067198480125013
-0.007584027924784
-0.0084844489747241
-0.0093866683728352
-0.010276993487239
-0.01115724083586
-0.012032685042354
-0.012906328413364
-0.013778775176461
-0.014649099398389
-0.015515645697399
-0.016376928130723
-0.017232055792285
-0.018080466461409
-0.018921532203948
-0.01975447285926
-0.020578464363586
-0.021392707892012
-0.022196428724549
-0.022988872439963
-0.023769317107528
-0.024537081274142
-0.025291526865006
-0.02603205673823
-0.0267581257271
-0.027469246061131
-0.028164991967586
-0.02884499484512
-0.029508963364
-0.030156653308563
-0.030787899212549
-0.03140258732587
-0.032000716045749
-0.03258231231103
-0.033147531777733
-0.033696518759526
-0.034229612124991
-0.034747054844538
-0.035249408613314
-0.035736942809324
-0.036210533446183
-0.036670320404537
-0.037117701786784
-0.037552311124979
-0.037976492791148
-0.038388344756308
-0.038791711281882
-0.039179482842126
-0.039554801623461
-0.039886830485866
-0.005830795136417
-0.0067852131220735
-0.0077850243607889
-0.0087844628959459
-0.0097658435442045
-0.010732115624844
-0.011690690570749
-0.012645754594825
-0.013598176883472
-0.014546841241882
-0.015489781343341
-0.016425309987028
-0.017352516092692
-0.018270904554367
-0.019179890815957
-0.020078691355869
-0.020966463365271
-0.021842394613072
-0.022705703129618
-0.023555631186582
-0.024391459082486
-0.025212513472727
-0.026018170681639
-0.026807853259337
-0.027581045394082
-0.028337297356932
-0.029076231081251
-0.029797528334717
-0.030500956965156
-0.031186344712578
-0.031853620173586
-0.032502773282405
-0.03313391532926
-0.033747193806095
-0.034342904449954
-0.034921345784972
-0.035483031179573
-0.036028385005734
-0.036558183508715
-0.037072900587417
-0.037573687106214
-0.038060890244077
-0.038536280176232
-0.038999645387814
-0.039453868174898
-0.039896977888641
-0.040333594493388
-0.040755611139214
-0.041166650439498
-0.041530017202166
-0.0048412746872875
-0.0058962785719602
-0.007007775667846
-0.0081162265864121
-0.0091992642821657
-0.010261325358898
-0.011312440945491
-0.012358193688886
-0.013399699315097
-0.014435557848967
-0.015463421303089
-0.016481375902592
-0.017488492849561
-0.01848435020745
-0.019468404028178
-0.020439856778853
-0.021397833933912
-0.022341497828256
-0.023270049217725
-0.024182717481468
-0.025078776975356
-0.025957554731218
-0.026818433002202
-0.027660846678806
-0.02848429935827
-0.029288369145039
-0.030072720146354
-0.030837089016225
-0.03158130411973
-0.032305261960208
-0.033008977869422
-0.033692548201291
-0.034356195983985
-0.035000200640616
-0.035624999013328
-0.036231062940044
-0.036819083192431
-0.037389695741929
-0.037943897968313
-0.03848241391359
-0.039006678322261
-0.039517315141288
-0.040016473673184
-0.040504205726428
-0.040983923628844
-0.041453775817947
-0.04191911429706
-0.042371189021733
-0.04281406060962
-0.04320604205579
-0.0037462658211108
-0.0049125321887397
-0.0061486373524607
-0.0073783131788495
-0.0085737940003272
-0.0097415569790729
-0.010894873443964
-0.012040923443692
-0.013180974712316
-0.014313205945487
-0.015434818879372
-0.016543661362813
-0.017638792325622
-0.018719863594092
-0.019786363121721
-0.020837464481108
-0.021872244906593
-0.022889825751915
-0.023889376287245
-0.024870100233411
-0.025831252501321
-0.026772146012546
-0.027692155547579
-0.028590714174943
-0.02946733535566
-0.030321618507342
-0.031153257256997
-0.031962025668897
-0.032747798977935
-0.033510544720822
-0.034250355322199
-0.034967430678966
-0.035662091343663
-0.036334758736385
-0.036985998700546
-0.037616470603066
-0.038227030833589
-0.038818551495266
-0.039392244832048
-0.039949125104182
-0.040490905604513
-0.041018556727036
-0.041534589675245
-0.042039449305784
-0.042537025332193
-0.043025832784139
-0.043511831480244
-0.043986158604163
-0.044453201712868
-0.044867868107795
-0.002539268936478
-0.0038278413730786
-0.0052022041178469
-0.0065659335101115
-0.0078850139528552
-0.0091686117937443
-0.010434042570428
-0.011690366928771
-0.012938852095838
-0.014177038293611
-0.015401592442161
-0.016610136073977
-0.017801734806797
-0.018976108385745
-0.020132756740762
-0.02127080228748
-0.022389252650767
-0.023487168165021
-0.024563668124713
-0.025617912745034
-0.026649120109102
-0.027656571524034
-0.028639615342731
-0.029597665259772
-0.030530221921275
-0.031436882930841
-0.032317352131258
-0.033171440134117
-0.033999055610451
-0.034800220989639
-0.035575072154694
-0.036323907722757
-0.037047121681018
-0.037745283144502
-0.038419056289363
-0.039069297998443
-0.039697002370184
-0.040303292708749
-0.040889575653253
-0.041457178493129
-0.042008072979681
-0.042543631197434
-0.043066680963352
-0.043578199430814
-0.044082438302128
-0.0445786095406
-0.04507303901276
-0.045557519613883
-0.046036538698732
-0.046464063484467
-0.001212632841266
-0.0026353929753396
-0.0041623330117744
-0.0056732163382448
-0.0071272845013894
-0.0085371979503202
-0.0099250716800342
-0.01130209018427
-0.012669363452811
-0.014023556661413
-0.015360693602164
-0.016678180945937
-0.017975121779087
-0.019251300176128
-0.020506199473918
-0.021738859501577
-0.022948191560321
-0.024133171040042
-0.025292844708743
-0.026426306966284
-0.027532714982474
-0.028611294079477
-0.029661340057882
-0.030682223308303
-0.03167340889788
-0.032634473272832
-0.033565100862211
-0.034465112148851
-0.035334413596135
-0.036173070353141
-0.036981232342891
-0.037759287654157
-0.038507660436147
-0.039227061997972
-0.039918206630211
-0.04058214980806
-0.041219974519721
-0.04183305644625
-0.042422959231783
-0.042991321309937
-0.043540338841335
-0.044071818655907
-0.044588826581718
-0.045093005622917
-0.045588773324393
-0.04607644285274
-0.046562261879728
-0.047039717592072
-0.047512966743582
-0.047938634029319
0.00024178904039552
-0.001327328664007
-0.0030220337858443
-0.0046936654703232
-0.0062942734216792
-0.0078412382772371
-0.009362326704707
-0.010870952826476
-0.012367835304827
-0.013848542857735
-0.015308367909233
-0.016744512968943
-0.018156143823112
-0.019543100368957
-0.020904813189764
-0.022240198771264
-0.023548037720911
-0.024827192225996
-0.026076609819563
-0.027295291493653
-0.028482304219307
-0.02963678628628
-0.030757949090122
-0.031845091643455
-0.032897606283233
-0.033915021922355
-0.034896970068415
-0.035843249572596
-0.03675371921171
-0.037628463035021
-0.038467607835845
-0.039271606088371
-0.040040863406924
-0.040776209693372
-0.041478353296691
-0.042148531691617
-0.042787846068553
-0.043397905069699
-0.043980361417449
-0.044537135318137
-0.045070573027025
-0.045582942720093
-0.046077395757127
-0.046556399824086
-0.047024293513268
-0.04748300274997
-0.04793796161893
-0.04838567925795
-0.048829119751503
-0.049232475419932
0.0018313240443211
0.00010409771169436
-0.0017737585953538
-0.0036199838944978
-0.0053789076392229
-0.0070739524547145
-0.0087394417855896
-0.010391081495593
-0.01202889218302
-0.013647099993967
-0.015240196820181
-0.016805208274032
-0.018341385319125
-0.01984860373336
-0.021326194066328
-0.022772900419371
-0.024187332814915
-0.02556820771982
-0.026914342183763
-0.028224611216114
-0.029497955019796
-0.030733388005245
-0.031929997434211
-0.033086973359825
-0.034203595908684
-0.035279310713378
-0.03631365218761
-0.037306358049186
-0.038257195042005
-0.039166223971117
-0.040033504247744
-0.040859500709977
-0.04164455833738
-0.042389569346349
-0.043095189340168
-0.043762790704659
-0.044393416328391
-0.044988871438778
-0.04555079754256
-0.046081343118227
-0.0465828281925
-0.047058046101462
-0.047509755807235
-0.047941562766116
-0.048357542062178
-0.048761849033187
-0.049157975268612
-0.049547260212266
-0.049930270177864
-0.050285030922014
0.0035631291260003
0.0016663021990752
-0.00041019590716166
-0.0024448680189002
-0.004373891155552
-0.006228217733549
-0.0080496592837989
-0.0098561785589538
-0.01164668756016
-0.013413805747422
-0.01515119721986
-0.016855764987114
-0.018526858397846
-0.020164348085206
-0.021767402179817
-0.023334534261569
-0.024864138342504
-0.026354748945589
-0.027805016907994
-0.029213651974526
-0.030579423727074
-0.031901179733814
-0.03317783823908
-0.034408436724709
-0.035592095785429
-0.036728122926395
-0.037815908539293
-0.038855086114387
-0.039845288594051
-0.040786485453104
-0.041678621985317
-0.042522095803773
-0.043317161798833
-0.044064671366367
-0.044765189326879
-0.045420127195554
-0.046030383779897
-0.046597906631495
-0.047124205049864
-0.047611575222015
-0.048062083116553
-0.048479377486567
-0.048864536283767
-0.049223464369727
-0.049559356559466
-0.049879041619165
-0.050182316641022
-0.050477869070825