/*--------------------------------*- C++ -*----------------------------------*\
| =========                 |                                                 |
| \\      /  F ield         | OpenFOAM: The Open Source CFD Toolbox           |
|  \\    /   O peration     | Version:  2112                                  |
|   \\  /    A nd           | Website:  www.openfoam.com                      |
|    \\/     M anipulation  |                                                 |
\*---------------------------------------------------------------------------*/
FoamFile
{
    version     2.0;
    format      ascii;
    arch        "LSB;label=32;scalar=64";
    class       volVectorField;
    location    "9.2";
    object      U;
}
// * * * * * * * * * * * * * * * * * * * * * * * * * * * * * * * * * * * * * //

dimensions      [0 1 -1 0 0 0 0];

internalField   nonuniform List<vector> 
22000
(
(1.0000010186334 -2.5859519892057e-05 0)
(1.0000267050887 -7.7594338719142e-05 0)
(1.0000761335022 -0.00012929334145646 0)
(1.000150510061 -0.00018088282902343 0)
(1.0002503046885 -0.00023228140148789 0)
(1.0003754282176 -0.00028342805183798 0)
(1.0005255890361 -0.00033428076297244 0)
(1.0007004922999 -0.00038478304336993 0)
(1.0008998689738 -0.000434785229298 0)
(1.0011234377676 -0.00048407160575575 0)
(1.0013708176453 -0.00053236780549998 0)
(1.0016415103886 -0.00057948334859967 0)
(1.0019348979861 -0.00062525410136379 0)
(1.0022503386825 -0.0006696967764905 0)
(1.002587153178 -0.00071275164526359 0)
(1.0029447323994 -0.00075457564778696 0)
(1.0033224088884 -0.00079501589972406 0)
(1.0037196319474 -0.00083432719597422 0)
(1.0041356744129 -0.00087208761749144 0)
(1.0045700311077 -0.00090882801936498 0)
(1.0050218123129 -0.00094364144161394 0)
(1.0054906381302 -0.00097778842566638 0)
(1.0059753425407 -0.0010093080677469 0)
(1.0064758760118 -0.0010410802303589 0)
(1.006990534982 -0.0010686528764539 0)
(1.0075199242076 -0.0010985382069962 0)
(1.0080612034929 -0.001120606283519 0)
(1.0086163283793 -0.0011498402555469 0)
(1.0091802139556 -0.0011632876909388 0)
(1.0097578972913 -0.0011956203443401 0)
(1.0000004741208 -7.6239128012717e-05 0)
(1.0000263137823 -0.0002288991688028 0)
(1.0000763376812 -0.0003816323244523 0)
(1.0001516821384 -0.0005342101308255 0)
(1.0002528761765 -0.00068635106674758 0)
(1.0003799161334 -0.00083782920432929 0)
(1.0005325593846 -0.000988487824514 0)
(1.0007105266601 -0.0011381438237449 0)
(1.000913534753 -0.0012863541786169 0)
(1.0011412983728 -0.0014324884358527 0)
(1.0013934237772 -0.0015757475357882 0)
(1.0016694387094 -0.0017155734521594 0)
(1.0019687185057 -0.0018514835263608 0)
(1.002290673895 -0.0019835149879925 0)
(1.002634584582 -0.0021114854027994 0)
(1.0029999242398 -0.002235835651895 0)
(1.0033859041062 -0.002356116967585 0)
(1.0037921418611 -0.0024730518256107 0)
(1.0042176317106 -0.0025854201827607 0)
(1.0046622548649 -0.0026947368101889 0)
(1.0051245053414 -0.0027983958310703 0)
(1.0056048885747 -0.0029000056621572 0)
(1.0061008809567 -0.0029939478819085 0)
(1.0066144108273 -0.0030884583535355 0)
(1.0071408066296 -0.0031707795539537 0)
(1.0076850103002 -0.0032595037725771 0)
(1.0082377212426 -0.0033256415630392 0)
(1.0088104123015 -0.0034119236998862 0)
(1.0093838732244 -0.0034528960854371 0)
(1.0099842042197 -0.0035472748387294 0)
(1.0000005165231 -0.00012498789540073 0)
(1.0000276194511 -0.00037529811625174 0)
(1.0000799171854 -0.00062591111811551 0)
(1.000158521807 -0.00087655596960026 0)
(1.000263978312 -0.0011267344128966 0)
(1.0003963110196 -0.0013759635156811 0)
(1.0005552783212 -0.0016238778431523 0)
(1.0007405849648 -0.0018701207587954 0)
(1.000951910147 -0.0021139730433247 0)
(1.0011889550442 -0.0023544584870238 0)
(1.0014513096037 -0.0025903402858451 0)
(1.001738547879 -0.0028207623464246 0)
(1.0020500496406 -0.0030449507478476 0)
(1.0023853167522 -0.003262950634042 0)
(1.0027435771376 -0.003474412582127 0)
(1.0031244366698 -0.0036800180651296 0)
(1.0035269180913 -0.0038789742168155 0)
(1.003950906602 -0.0040724621259006 0)
(1.0043949447303 -0.0042584287162184 0)
(1.0048595497571 -0.0044394140428716 0)
(1.0053421901104 -0.0046110455188901 0)
(1.0058448696106 -0.0047793938782012 0)
(1.0063627431716 -0.0049349927697782 0)
(1.0069011622811 -0.0050917219763479 0)
(1.0074502504304 -0.0052280191435694 0)
(1.0080226340763 -0.0053752907405783 0)
(1.0085973909005 -0.0054844463597264 0)
(1.0092032947671 -0.0056278147748878 0)
(1.0097950299552 -0.0056944403114244 0)
(1.0104381055885 -0.0058516337246503 0)
(1.0000005531506 -0.00017334367632106 0)
(1.0000291376883 -0.00052025038019322 0)
(1.0000842149451 -0.00086758739137618 0)
(1.0001669688441 -0.0012152684711246 0)
(1.0002780171399 -0.0015626171784364 0)
(1.0004174202242 -0.0019087944387921 0)
(1.0005849165169 -0.0022530992656146 0)
(1.0007801699381 -0.0025949333467978 0)
(1.0010027984612 -0.0029333263432388 0)
(1.0012524831522 -0.0032670627317088 0)
(1.0015287938125 -0.0035946027861377 0)
(1.0018313724603 -0.0039149044699539 0)
(1.0021596088944 -0.0042269476746706 0)
(1.0025131378084 -0.0045307739632249 0)
(1.0028911193696 -0.004825800027778 0)
(1.0032933522855 -0.0051128911427053 0)
(1.0037185972589 -0.0053908325268308 0)
(1.0041671259246 -0.0056612647746028 0)
(1.0046368430187 -0.0059212361511845 0)
(1.0051291798469 -0.0061744007732217 0)
(1.0056401471076 -0.0064144842262192 0)
(1.0061738952027 -0.0066502389262744 0)
(1.0067222688211 -0.0068679898255135 0)
(1.0072955156961 -0.0070877910136739 0)
(1.0078763332597 -0.0072783815873615 0)
(1.0084883292248 -0.0074852954752956 0)
(1.0090940144262 -0.0076371998398105 0)
(1.0097468753908 -0.0078392133304794 0)
(1.0103644194905 -0.0079298124130935 0)
(1.0110683670951 -0.0081525116141414 0)
(1.0000005979319 -0.00022162983478696 0)
(1.0000309216073 -0.0006647547365328 0)
(1.0000892628179 -0.0011083789120338 0)
(1.0001769044152 -0.0015528355922896 0)
(1.0002945675066 -0.0019973011591183 0)
(1.0004423668569 -0.0024404641774692 0)
(1.0006200198383 -0.0028811441182777 0)
(1.0008271401399 -0.0033184234964154 0)
(1.0010632709402 -0.0037511079598524 0)
(1.0013280729785 -0.0041778622719488 0)
(1.0016210975739 -0.0045969960714109 0)
(1.0019420810182 -0.0050074090359219 0)
(1.0022904337318 -0.0054078854590359 0)
(1.0026659687838 -0.0057984508820603 0)
(1.0030677679259 -0.0061782096663275 0)
(1.0034958878418 -0.0065481480579739 0)
(1.003948761951 -0.0069065352198277 0)
(1.004427172517 -0.0072554782350785 0)
(1.0049282131101 -0.0075910389927375 0)
(1.005454509275 -0.0079181044624557 0)
(1.0060002034247 -0.008228314431106 0)
(1.0065722323221 -0.008533400480543 0)
(1.0071581881578 -0.0088149935889929 0)
(1.0077746457565 -0.0091000401241167 0)
(1.0083947626831 -0.0093463759702722 0)
(1.0090562857279 -0.0096154248032978 0)
(1.0097004615657 -0.0098107338717471 0)
(1.0104124987735 -0.010074487213679 0)
(1.0110622400206 -0.010187840981068 0)
(1.0118433669016 -0.010480693683249 0)
(1.0000006486355 -0.00027003218194175 0)
(1.0000328878955 -0.00080935362328593 0)
(1.0000948142862 -0.0013492074012135 0)
(1.000187823984 -0.0018906120400531 0)
(1.0003127645749 -0.002432624106247 0)
(1.0004698233019 -0.0029733211380978 0)
(1.0006587007674 -0.0035108767546518 0)
(1.0008789572574 -0.0040439655589102 0)
(1.0011300526943 -0.0045711994349724 0)
(1.0014116302264 -0.0050912576107581 0)
(1.0017232281023 -0.0056024701846538 0)
(1.0020647070205 -0.0061038220365914 0)
(1.0024355147894 -0.0065939594715251 0)
(1.0028356936175 -0.0070728793576357 0)
(1.003264244143 -0.0075392868092079 0)
(1.0037215512971 -0.0079942210414534 0)
(1.0042056660444 -0.0084353292986978 0)
(1.0047180089059 -0.0088651980999131 0)
(1.0052547035538 -0.0092787999941937 0)
(1.0058198477203 -0.0096824002520736 0)
(1.0064053306183 -0.010065330877473 0)
(1.0070214953832 -0.010442666058422 0)
(1.0076507921342 -0.010790755994767 0)
(1.0083174863941 -0.011144314838804 0)
(1.0089832051659 -0.011448817901981 0)
(1.0097028073706 -0.011783716104523 0)
(1.010391877953 -0.012023960872574 0)
(1.0111738957702 -0.012353956904239 0)
(1.011861289919 -0.01248940723383 0)
(1.0127343336456 -0.01285879784952 0)
(1.0000007029316 -0.00031857483909462 0)
(1.0000349353649 -0.00095410166366356 0)
(1.0001005810747 -0.0015901608851804 0)
(1.000199161339 -0.002228744456754 0)
(1.0003316706248 -0.0028688202142665 0)
(1.000498385997 -0.003507706930134 0)
(1.0006989975607 -0.0041427551043892 0)
(1.0009330123271 -0.0047721376561707 0)
(1.0011998028643 -0.0053943074822099 0)
(1.0014990012614 -0.0060081045476565 0)
(1.0018301424717 -0.0066120659145823 0)
(1.0021932449956 -0.0072054181295572 0)
(1.0025878157259 -0.0077867345902808 0)
(1.0030141803483 -0.008355972807971 0)
(1.0034712627352 -0.0089113488468293 0)
(1.0039598502428 -0.009453885677941 0)
(1.0044775667638 -0.0099804977251308 0)
(1.0050266011494 -0.010494270607361 0)
(1.0056019654332 -0.010988976243202 0)
(1.0062095032449 -0.011472425215701 0)
(1.0068384971885 -0.011931392802522 0)
(1.0075032919877 -0.012384709888019 0)
(1.0081803733743 -0.012802780887147 0)
(1.0089029824571 -0.013229082899983 0)
(1.0096193792521 -0.013595075841429 0)
(1.010404297125 -0.014000659915725 0)
(1.0111436259509 -0.014288250290139 0)
(1.0120051375809 -0.014690294744318 0)
(1.0127349566949 -0.014847855527579 0)
(1.0137133059984 -0.015301740898872 0)
(1.0000007586322 -0.00036713454126372 0)
(1.0000369635061 -0.0010986188476697 0)
(1.0001062755709 -0.0018306041774938 0)
(1.0002103493971 -0.0025663578071469 0)
(1.0003503448392 -0.0033047952616599 0)
(1.0005266461827 -0.0040423273846185 0)
(1.0007389414765 -0.0047753011754225 0)
(1.000986687482 -0.0055012933349888 0)
(1.0012691691717 -0.0062186372361811 0)
(1.0015860174121 -0.0069264888808041 0)
(1.0019367775874 -0.0076237904283959 0)
(1.0023216622322 -0.0083101764473772 0)
(1.0027402637103 -0.0089842196509415 0)
(1.0031932487094 -0.0096458308032571 0)
(1.0036794760718 -0.010292648021022 0)
(1.004200213316 -0.01092561035931 0)
(1.0047526248645 -0.011540787733296 0)
(1.0053397993226 -0.012141791548063 0)
(1.0059555163552 -0.012721077558587 0)
(1.0066076312299 -0.013288186774684 0)
(1.0072825064945 -0.013827069040554 0)
(1.0079990494042 -0.014360767165195 0)
(1.0087270436782 -0.014853013556512 0)
(1.0095098887927 -0.015357139841027 0)
(1.010280833679 -0.015788779689895 0)
(1.0111369844687 -0.016270931713748 0)
(1.0119309432315 -0.016609172877776 0)
(1.0128801620342 -0.01709033800192 0)
(1.0136565850912 -0.017270857037742 0)
(1.0147522439162 -0.017818761814899 0)
(1.0000008136803 -0.00041547278627511 0)
(1.0000388734911 -0.0012421881085054 0)
(1.0001116143419 -0.0020693447211864 0)
(1.0002208289848 -0.0029017922338755 0)
(1.0003678590758 -0.0037384352807639 0)
(1.000553213536 -0.0045746315131906 0)
(1.0007765888383 -0.0054055471200578 0)
(1.0010373973247 -0.0062280707620453 0)
(1.0013348397462 -0.0070404602729026 0)
(1.0016685585654 -0.0078423486420678 0)
(1.0020381268147 -0.0086332886475975 0)
(1.0024439893438 -0.009413495590694 0)
(1.0028858542897 -0.010181620232376 0)
(1.00336478865 -0.010937523695159 0)
(1.0038796049477 -0.011678182244297 0)
(1.0044321302039 -0.012404387784181 0)
(1.0050190501935 -0.013111258689948 0)
(1.0056444827756 -0.013802965986143 0)
(1.0063008794029 -0.014470536287188 0)
(1.0069983582775 -0.015125439141715 0)
(1.0077200983687 -0.015748523201952 0)
(1.0084900826633 -0.016367525930917 0)
(1.0092707621727 -0.016938746180939 0)
(1.0101167482008 -0.01752652825914 0)
(1.0109448713508 -0.018028764740107 0)
(1.0118767823503 -0.01859435952116 0)
(1.0127287380783 -0.018987501807142 0)
(1.013772481574 -0.019556103920402 0)
(1.0145991080834 -0.019761434226163 0)
(1.015822559803 -0.020414410036932 0)
(1.0000008658971 -0.00046326747330278 0)
(1.0000405704551 -0.0013838494209542 0)
(1.0001163261908 -0.0023047884476438 0)
(1.0002300655024 -0.0032328203760875 0)
(1.0003833259195 -0.004166884612911 0)
(1.0005767578389 -0.005101148662626 0)
(1.0008100782017 -0.0060294289619946 0)
(1.0010826631567 -0.0069478400126978 0)
(1.0013936357471 -0.0078546122306483 0)
(1.0017426650678 -0.0087500188556041 0)
(1.0021293714967 -0.0096344320209772 0)
(1.002554470963 -0.010508823401531 0)
(1.003017820325 -0.011372006466719 0)
(1.0035209457742 -0.01222379529525 0)
(1.0040626388375 -0.013060429602053 0)
(1.0046453638656 -0.013882497249211 0)
(1.0052653242824 -0.014684069252668 0)
(1.0059277888585 -0.015469914146661 0)
(1.0066238172327 -0.01622953032678 0)
(1.0073660152017 -0.016976512740155 0)
(1.0081341795501 -0.017688351406408 0)
(1.008957813499 -0.018397954845126 0)
(1.0097915364083 -0.019053441455571 0)
(1.0107020626044 -0.019731335664523 0)
(1.011588683972 -0.020309847263146 0)
(1.0125993791536 -0.020966670721488 0)
(1.0135116508268 -0.021419934951857 0)
(1.0146552350541 -0.022085495198205 0)
(1.0155351037084 -0.022318685846627 0)
(1.0168951980689 -0.0230892489945 0)
(1.0000009133163 -0.00051014245756997 0)
(1.0000419670158 -0.0015224878283054 0)
(1.0001201613443 -0.002535085815132 0)
(1.0002375671586 -0.0035568512045866 0)
(1.0003959293028 -0.004586807071729 0)
(1.0005960550116 -0.0056178058398295 0)
(1.0008376941087 -0.0066421581430709 0)
(1.0011201962534 -0.0076551263333747 0)
(1.0014426156467 -0.0086549649700036 0)
(1.0018046642859 -0.0096427496059594 0)
(1.0022060309644 -0.010619879362851 0)
(1.0026477400069 -0.011588257099123 0)
(1.0031298314357 -0.012546948803694 0)
(1.0036543458518 -0.013495729639024 0)
(1.0042200864397 -0.014430041994425 0)
(1.0048302249127 -0.015350218348332 0)
(1.0054805009986 -0.016249208659546 0)
(1.0061774326795 -0.017132408322681 0)
(1.0069106793736 -0.01798773178281 0)
(1.007695493463 -0.018831048040658 0)
(1.008508213387 -0.019636330547585 0)
(1.0093841544032 -0.020442008555869 0)
(1.0102698442969 -0.0211874567627 0)
(1.0112446950732 -0.021962351629445 0)
(1.0121897604483 -0.022623475718875 0)
(1.013280594686 -0.023380056065523 0)
(1.0142543245161 -0.023899630376329 0)
(1.0155013296107 -0.024672673842012 0)
(1.0164368428694 -0.024938207433219 0)
(1.0179406139375 -0.025840239485151 0)
(1.0000009540163 -0.00055569534189862 0)
(1.0000429863916 -0.0016569158198548 0)
(1.0001229012212 -0.0027582683276043 0)
(1.0002429040108 -0.0038711207354904 0)
(1.0004049553748 -0.0049946304855858 0)
(1.0006100325091 -0.0061202250240958 0)
(1.0008579298874 -0.0072385698609104 0)
(1.0011479806885 -0.0083440071699013 0)
(1.0014791804624 -0.0094348694655345 0)
(1.0018513003381 -0.010513191691576 0)
(1.0022641188678 -0.011581602064899 0)
(1.0027190020985 -0.012643104618081 0)
(1.0032162085695 -0.013697112021336 0)
(1.0037583394653 -0.014743373374576 0)
(1.0043442537403 -0.01577649222224 0)
(1.0049778776141 -0.016796496547821 0)
(1.0056545515218 -0.017795178560902 0)
(1.0063820663541 -0.018778559893822 0)
(1.0071488184882 -0.019733005378773 0)
(1.0079726335658 -0.020676677134395 0)
(1.0088267181011 -0.021580123660937 0)
(1.0097518893667 -0.022487265572279 0)
(1.0106872327758 -0.023328770952637 0)
(1.0117242372865 -0.024207611480777 0)
(1.0127266103404 -0.024958495107068 0)
(1.0138968031202 -0.025823616248014 0)
(1.0149322527277 -0.026416861514601 0)
(1.0162839061198 -0.027308455521397 0)
(1.017276766468 -0.027612252244337 0)
(1.0189293738661 -0.028661064669354 0)
(1.000000986396 -0.00059952327064061 0)
(1.0000435656727 -0.0017859493030111 0)
(1.0001243668537 -0.0029723740825563 0)
(1.0002457248622 -0.0041728672705418 0)
(1.0004098209314 -0.0053867715423421 0)
(1.0006178115467 -0.0066039967600142 0)
(1.000869545727 -0.0078134437238925 0)
(1.0011643497803 -0.0090084776085139 0)
(1.0015011714005 -0.010187563491193 0)
(1.0018798555671 -0.011353844132393 0)
(1.0023002910398 -0.012511369048991 0)
(1.0027642118543 -0.013664405018528 0)
(1.003272131067 -0.014812807953856 0)
(1.0038272408397 -0.015956319154583 0)
(1.0044285171731 -0.017088680997758 0)
(1.0050806465513 -0.018209575861015 0)
(1.0057787079451 -0.019309633478712 0)
(1.0065316544966 -0.020395482875825 0)
(1.0073270078603 -0.02145205972083 0)
(1.0081846519568 -0.022499681540691 0)
(1.0090757894035 -0.023505955095368 0)
(1.0100450477218 -0.02451947175004 0)
(1.0110271085612 -0.025463806898305 0)
(1.0121210125932 -0.026452624834584 0)
(1.0131802028064 -0.027302313579287 0)
(1.0144241544969 -0.028283126088207 0)
(1.0155245024783 -0.028960907933672 0)
(1.0169739737292 -0.029978725653749 0)
(1.0180340951286 -0.030334573939967 0)
(1.0198315119913 -0.031541845898677 0)
(1.0000010093488 -0.000641246487247 0)
(1.0000436600787 -0.001908478540538 0)
(1.0001244294954 -0.0031755639206474 0)
(1.0002457762421 -0.0044594915345511 0)
(1.0004101022973 -0.00575983959617 0)
(1.0006187473526 -0.0070649270725258 0)
(1.0008716220309 -0.0083617923118139 0)
(1.0011680543555 -0.0096427785881922 0)
(1.0015069547676 -0.010906537452398 0)
(1.0018882541934 -0.012157456052004 0)
(1.0023119695543 -0.013401183378249 0)
(1.0027802211082 -0.014643398885617 0)
(1.003293808774 -0.015884498109923 0)
(1.0038565340692 -0.017124238618776 0)
(1.0044675496829 -0.018355497107798 0)
(1.0051323024571 -0.019577582472525 0)
(1.005845730092 -0.020779979619676 0)
(1.0066178900937 -0.021969920221412 0)
(1.0074356741088 -0.023131024536916 0)
(1.0083208304818 -0.024285735191902 0)
(1.0092430543542 -0.025398924225127 0)
(1.0102502406091 -0.026523754144355 0)
(1.0112738374698 -0.027576921339892 0)
(1.0124187119613 -0.028682521181436 0)
(1.0135314877712 -0.029639441411778 0)
(1.0148428702987 -0.030743658651377 0)
(1.0160092684411 -0.031518132831476 0)
(1.017547525554 -0.032669117455724 0)
(1.0186849127724 -0.033094097284967 0)
(1.0206189685865 -0.034470484834637 0)
(1.0000010219822 -0.00068052463580074 0)
(1.0000432433185 -0.002023514871446 0)
(1.0001230187083 -0.0033662003925603 0)
(1.000242917508 -0.0047286711748206 0)
(1.0004055548487 -0.0061107892562861 0)
(1.0006124524149 -0.0074992289095424 0)
(1.0008635878416 -0.0088790905259929 0)
(1.0011582991071 -0.010241662479655 0)
(1.0014954692368 -0.011585834802438 0)
(1.0018751234008 -0.012917361172497 0)
(1.0022974198144 -0.014243650427807 0)
(1.0027648743559 -0.015571929577324 0)
(1.0032785982938 -0.016903227759291 0)
(1.0038430111423 -0.018237347084954 0)
(1.0044574910765 -0.019566313378566 0)
(1.005128246292 -0.020889043968604 0)
(1.00585016553 -0.022193926303223 0)
(1.0066343931281 -0.023488790332886 0)
(1.0074673468084 -0.02475607863035 0)
(1.0083725916698 -0.026020354136465 0)
(1.0093185545948 -0.027243911522711 0)
(1.0103563082108 -0.028484550081129 0)
(1.0114143936838 -0.029652031780557 0)
(1.0126034034879 -0.03088121697205 0)
(1.0137635010264 -0.03195304975611 0)
(1.0151364948493 -0.033189876739662 0)
(1.0163642040186 -0.034070920750896 0)
(1.0179869155614 -0.035366705788336 0)
(1.0191990789534 -0.035872389223477 0)
(1.0212677270686 -0.03743297039083 0)
(1.0000010237246 -0.00071706770439418 0)
(1.0000423066464 -0.0021302208547301 0)
(1.0001201140124 -0.0035428994959381 0)
(1.0002371055194 -0.0049784385719819 0)
(1.0003960946313 -0.0064370277516014 0)
(1.0005987798429 -0.0079036609835553 0)
(1.0008452092564 -0.0093614468287172 0)
(1.0011347369306 -0.010800596865927 0)
(1.0014662259098 -0.012220287665281 0)
(1.0018398001941 -0.013627744313359 0)
(1.0022557667599 -0.015032275190064 0)
(1.002717037573 -0.016442772116435 0)
(1.0032250481256 -0.01786098726687 0)
(1.0037848354206 -0.019286798342418 0)
(1.0043960357958 -0.020711412454342 0)
(1.0050656200488 -0.022133349547474 0)
(1.0057884937061 -0.02353996741166 0)
(1.0065768891466 -0.024939706355343 0)
(1.0074168605341 -0.026313965242845 0)
(1.0083337860805 -0.027689475806639 0)
(1.0092949936076 -0.029026061368167 0)
(1.0103547188143 -0.030386304791898 0)
(1.0114388305336 -0.031672992177163 0)
(1.0126636254109 -0.033031963101818 0)
(1.0138631165743 -0.034226150988516 0)
(1.0152901482456 -0.035604346254091 0)
(1.0165724771067 -0.036602027932811 0)
(1.0182735974923 -0.038054104232072 0)
(1.0195561387189 -0.038652833718869 0)
(1.0217549291504 -0.040412718139791 0)
(1.0000010145418 -0.0007506468260555 0)
(1.0000408580076 -0.0022279432519917 0)
(1.0001157394732 -0.0037045839050015 0)
(1.0002283843886 -0.0052072529579276 0)
(1.0003817846287 -0.0067365055820169 0)
(1.0005778063812 -0.0082756376015211 0)
(1.0008165690408 -0.0098057333725101 0)
(1.0010974467356 -0.011315916082618 0)
(1.0014192871039 -0.012805690858787 0)
(1.0017823122364 -0.014283839037992 0)
(1.0021869776529 -0.015761684821454 0)
(1.0026365831065 -0.017249881845806 0)
(1.0031328890037 -0.018750989100915 0)
(1.0036815398787 -0.020264992485444 0)
(1.0042824453276 -0.021782327288957 0)
(1.0049433358395 -0.023301124284611 0)
(1.0056591770722 -0.024807790477648 0)
(1.0064432915236 -0.026311413395859 0)
(1.0072814574965 -0.027792465684028 0)
(1.0082008576671 -0.029279950096545 0)
(1.0091678840278 -0.030731280304125 0)
(1.0102398917986 -0.032214049171945 0)
(1.0113403585037 -0.03362398323417 0)
(1.0125911750661 -0.035118201102956 0)
(1.0138206386166 -0.036441547080981 0)
(1.0152924523645 -0.037969281035487 0)
(1.0166208189918 -0.039093493265885 0)
(1.0183924227803 -0.040712855121498 0)
(1.0197386876007 -0.041417562273584 0)
(1.0220607093011 -0.043391104486924 0)
(1.0000009946791 -0.00078110055513538 0)
(1.0000389199441 -0.0023162312930942 0)
(1.000109961435 -0.0038505129705432 0)
(1.0002168826152 -0.0054140427037282 0)
(1.0003628284224 -0.0070077715062037 0)
(1.0005498193812 -0.0086132958450746 0)
(1.0007780450226 -0.010209664662497 0)
(1.001046901957 -0.011784911779035 0)
(1.0013552248121 -0.013338906587927 0)
(1.0017033276905 -0.014882049686152 0)
(1.0020918072261 -0.016427771600748 0)
(1.0025243303173 -0.017988561183168 0)
(1.0030029719685 -0.019567860772814 0)
(1.0035339597577 -0.021165795810041 0)
(1.0041174833905 -0.022772090612057 0)
(1.0047620096739 -0.024384507889152 0)
(1.0054626113406 -0.025988587769866 0)
(1.006233656676 -0.027594133586039 0)
(1.0070607830148 -0.029180770934337 0)
(1.0079728474777 -0.030779964088919 0)
(1.0089356182268 -0.032346660286135 0)
(1.0100092767838 -0.033953891337726 0)
(1.0111154703418 -0.035490000475171 0)
(1.012381254967 -0.037124043945959 0)
(1.0136299290551 -0.038582406316895 0)
(1.0151357493141 -0.040267124664327 0)
(1.0164998266008 -0.041527253829288 0)
(1.0183322586906 -0.043324329704538 0)
(1.0197333314216 -0.044147899173202 0)
(1.0221691037261 -0.046347970891697 0)
(1.0000009647661 -0.00080833414109124 0)
(1.0000365262323 -0.002394834013463 0)
(1.0001028799819 -0.0039802800950914 0)
(1.0002027985388 -0.0055982063899502 0)
(1.0003395501343 -0.0072499820744951 0)
(1.0005152900816 -0.0089155175846387 0)
(1.0007302732272 -0.010571833633997 0)
(1.0009839194472 -0.01220588161086 0)
(1.0012750540882 -0.013817923707466 0)
(1.0016040723807 -0.015420020395308 0)
(1.0019717002482 -0.017027774857989 0)
(1.0023819350655 -0.018655559703138 0)
(1.0028371504373 -0.020307771159161 0)
(1.0033441073288 -0.021984698595478 0)
(1.0039032861216 -0.023675431565973 0)
(1.0045238296614 -0.02537738812363 0)
(1.0052009865682 -0.027075335939176 0)
(1.0059500606436 -0.028779874210804 0)
(1.0067567393344 -0.030469849023173 0)
(1.0076513077803 -0.032179401487887 0)
(1.0085993334935 -0.033860957547728 0)
(1.0096633480584 -0.035593397988286 0)
(1.0107638849008 -0.03725744770309 0)
(1.0120325085728 -0.039034702014386 0)
(1.0132884324589 -0.040632771062013 0)
(1.0148159764633 -0.04248103029829 0)
(1.0162038896559 -0.043885633343498 0)
(1.0180860593657 -0.045870464546166 0)
(1.0195310188692 -0.046825730305022 0)
(1.0220693437767 -0.049264223467776 0)
(1.0000009251917 -0.00083231280621269 0)
(1.0000337151553 -0.0024636816927054 0)
(1.0000946134114 -0.0040937841741716 0)
(1.0001863723325 -0.0057595732573706 0)
(1.0003123499687 -0.0074628520569728 0)
(1.0004748125607 -0.0091818773553792 0)
(1.0006740755763 -0.01089167014776 0)
(1.0009095792764 -0.012578109651777 0)
(1.0011801449441 -0.014241864671609 0)
(1.00148622723 -0.015896665050167 0)
(1.001828670575 -0.017560328887375 0)
(1.0022117415346 -0.019249134440876 0)
(1.0026381066429 -0.020968505524468 0)
(1.0031149688384 -0.022718907168754 0)
(1.0036431439109 -0.024488902246947 0)
(1.0042323189128 -0.026275562159946 0)
(1.0048780510065 -0.028063025975356 0)
(1.0055963601313 -0.029862705701899 0)
(1.0063732580059 -0.03165281930683 0)
(1.0072400755699 -0.033470271066636 0)
(1.0081627156357 -0.035265096601103 0)
(1.0092053594561 -0.037122191249012 0)
(1.0102884958685 -0.038914720207343 0)
(1.0115467221367 -0.040837258253251 0)
(1.012797569284 -0.04257804895377 0)
(1.0143317981445 -0.0445958203117 0)
(1.0157322982279 -0.046150455198011 0)
(1.0176471247688 -0.048335919421283 0)
(1.0191297474237 -0.049429954251763 0)
(1.0217465170347 -0.052122396283392 0)
(1.0000008740934 -0.00085305566777871 0)
(1.0000305219797 -0.002522859042239 0)
(1.0000852880579 -0.0041911760582964 0)
(1.0001678740942 -0.0058983193542111 0)
(1.0002816792425 -0.0076465345418816 0)
(1.0004290470405 -0.0094124765207449 0)
(1.0006103626143 -0.011169222747643 0)
(1.0008250935427 -0.012901601735776 0)
(1.0010720765105 -0.014610694006353 0)
(1.0013517791437 -0.016311869407584 0)
(1.0016651545555 -0.018025173703124 0)
(1.0020166265647 -0.019768770362782 0)
(1.0024091813406 -0.021549189782984 0)
(1.0028502932892 -0.023367049563245 0)
(1.0033412557168 -0.025210554274521 0)
(1.0038920222141 -0.027076345510459 0)
(1.0044987772004 -0.028948220478919 0)
(1.0051777740477 -0.030838205950641 0)
(1.0059159204203 -0.03272435220529 0)
(1.0067448017966 -0.03464597093041 0)
(1.0076316254749 -0.036551402645956 0)
(1.0086409303241 -0.038531008427052 0)
(1.0096949017587 -0.040451302120089 0)
(1.0109288256474 -0.042519314537699 0)
(1.0121619326904 -0.044404378714802 0)
(1.0136864411355 -0.046595300158652 0)
(1.0150867281608 -0.048303543978083 0)
(1.0170142677136 -0.050698646720491 0)
(1.0185264021221 -0.051939139294029 0)
(1.0211931159321 -0.054896554480592 0)
(1.0000008070355 -0.00087066172675937 0)
(1.000027005253 -0.0025726547620831 0)
(1.0000750814545 -0.0042728614856061 0)
(1.0001476582165 -0.0060148823574035 0)
(1.0002481094809 -0.0078014522723256 0)
(1.0003788050875 -0.0096077060484555 0)
(1.00054021781 -0.011404837077301 0)
(1.0007318567199 -0.013176623929328 0)
(1.0009526272549 -0.014924548527537 0)
(1.0012029477153 -0.016665569549795 0)
(1.0014838878017 -0.018421970568596 0)
(1.0017998445772 -0.020213754474144 0)
(1.0021542087767 -0.022048658319804 0)
(1.0025544238947 -0.023927373030157 0)
(1.003002581987 -0.025837973323176 0)
(1.0035083420874 -0.027776423728336 0)
(1.0040692529712 -0.029726661949658 0)
(1.0047006766012 -0.03170073169651 0)
(1.0053918939542 -0.033677519175537 0)
(1.0061726151782 -0.035697527456253 0)
(1.0070141359356 -0.037709244569784 0)
(1.007977518669 -0.039806376474894 0)
(1.0089916660984 -0.041851678026995 0)
(1.0101859887326 -0.044061686408415 0)
(1.0113900275398 -0.046090285172594 0)
(1.0128868825485 -0.04845369104285 0)
(1.0142751424307 -0.050316395870064 0)
(1.0161931704523 -0.052922141271822 0)
(1.0177194978193 -0.054311648868702 0)
(1.020415028131 -0.057530989517238 0)
(1.0000007216928 -0.00088538618456849 0)
(1.0000233680414 -0.0026139030734333 0)
(1.000064473308 -0.0043400419216471 0)
(1.0001264496161 -0.0061105823021418 0)
(1.0002125710297 -0.0079288983121719 0)
(1.0003252473835 -0.009768842345925 0)
(1.0004651254948 -0.011599850026355 0)
(1.0006317701368 -0.013404618946431 0)
(1.0008241764294 -0.015184913592101 0)
(1.001042605489 -0.016959138432265 0)
(1.0012882470175 -0.018751775662702 0)
(1.0015652472843 -0.020584635572845 0)
(1.0018775585401 -0.022466848393156 0)
(1.0022322344622 -0.024399166049888 0)
(1.0026326824439 -0.026369869550449 0)
(1.0030874506636 -0.028373904597887 0)
(1.0035966492182 -0.030395979258841 0)
(1.0041728073032 -0.032447130395431 0)
(1.0048103367387 -0.034508642563093 0)
(1.0055327433006 -0.036619857186312 0)
(1.0063215922858 -0.038732902491051 0)
(1.0072251665857 -0.040940046204354 0)
(1.0081923890855 -0.043106852976713 0)
(1.0093273513462 -0.045451514558164 0)
(1.0104977349344 -0.047621712272505 0)
(1.0119387336235 -0.050154275750381 0)
(1.0133194736469 -0.052168533069338 0)
(1.015188399968 -0.054996158500621 0)
(1.0167484595619 -0.056510522919384 0)
(1.019417012109 -0.060052617917738 0)
(1.0000005761876 -0.00089768245193 0)
(1.0000198331336 -0.0026483691556521 0)
(1.0000542197804 -0.0043958033651365 0)
(1.0001054337781 -0.0061898479008542 0)
(1.00017641065 -0.0080344474683991 0)
(1.0002696853558 -0.0099026197804278 0)
(1.0003863647775 -0.011762354786555 0)
(1.0005262677417 -0.013595444558655 0)
(1.0006884930826 -0.015403973264726 0)
(1.0008730707151 -0.017207446065368 0)
(1.0010811507366 -0.019032384244863 0)
(1.0013163391873 -0.020902300189998 0)
(1.0015831562222 -0.022827888814355 0)
(1.0018880691618 -0.02481005098113 0)
(1.0022362078844 -0.026837769711867 0)
(1.0026345444541 -0.028904839965486 0)
(1.0030866590998 -0.030997685335146 0)
(1.0036006827724 -0.033125372726721 0)
(1.0041785215293 -0.035273909427773 0)
(1.0048331564432 -0.037478400210776 0)
(1.0055631074995 -0.039700511159281 0)
(1.00639242531 -0.042022923732714 0)
(1.0073082948866 -0.044327387811164 0)
(1.0083593175505 -0.046815930206868 0)
(1.0094988821983 -0.049154994450569 0)
(1.0108384873287 -0.051874922688038 0)
(1.0122352182146 -0.054076708302417 0)
(1.0139795405882 -0.057183892330114 0)
(1.0156644262478 -0.058849261962666 0)
(1.0182376562568 -0.063021697536972 0)
(1.0000002123179 -0.00090895924055691 0)
(1.0000154562411 -0.0026802728502655 0)
(1.0000431802318 -0.0044484450708471 0)
(1.0000836733902 -0.0062670625358628 0)
(1.0001392107895 -0.0081398650983942 0)
(1.0002123593181 -0.010038626721686 0)
(1.0003050277413 -0.011929313464532 0)
(1.0004175404621 -0.013792699329465 0)
(1.0005493345233 -0.015631422769553 0)
(1.0007000788249 -0.017467073356609 0)
(1.0008708505348 -0.019328550707556 0)
(1.0010645561888 -0.021241328716751 0)
(1.0012858758284 -0.023217634732592 0)
(1.0015406044096 -0.025258332085131 0)
(1.0018351263344 -0.027352837735168 0)
(1.0021752830264 -0.029493613592951 0)
(1.0025675623839 -0.031669148966644 0)
(1.0030169421821 -0.03388630733542 0)
(1.0035315409826 -0.036137510815028 0)
(1.0041159938415 -0.038451275808978 0)