/*--------------------------------*- C++ -*----------------------------------*\
| =========                 |                                                 |
| \\      /  F ield         | OpenFOAM: The Open Source CFD Toolbox           |
|  \\    /   O peration     | Version:  2112                                  |
|   \\  /    A nd           | Website:  www.openfoam.com                      |
|    \\/     M anipulation  |                                                 |
\*---------------------------------------------------------------------------*/
FoamFile
{
    version     2.0;
    format      ascii;
    arch        "LSB;label=32;scalar=64";
    class       surfaceScalarField;
    location    "5.5";
    object      phi;
}
// * * * * * * * * * * * * * * * * * * * * * * * * * * * * * * * * * * * * * //

dimensions      [0 3 -1 0 0 0 0];

oriented        oriented;

internalField   nonuniform List<scalar> 
43645
(
0.39512504770233
-6.1745832762114e-06
0.39514371711654
-1.8669349544878e-05
0.39517508471873
-3.1367532335275e-05
0.39521950594604
-4.4421155138433e-05
0.39527739007222
-5.7884053601048e-05
0.39534925258972
-7.1862445527591e-05
0.39543578019094
-8.6527530420625e-05
0.39553779585332
-0.00010201559295071
0.3956561135141
-0.00011831759288174
0.39579137579254
-0.00013526221205068
0.3959439447976
-0.00015256894025201
0.39611388691107
-0.00016994205014801
0.39630100168853
-0.00018711471568374
0.39650489937828
-0.00020389762938074
0.39672503748402
-0.00022013804680397
0.39696080670093
-0.000235769159249
0.39721150906918
-0.00025070231183913
0.39747647738154
-0.00026496825699931
0.39775494724942
-0.00027846981356717
0.39804629196053
-0.00029134465758336
0.39834966737298
-0.00030337535970493
0.39866456350429
-0.0003148960790959
0.39898994514697
-0.00032538159096725
0.39932560159014
-0.00033565639171165
0.39967008803244
-0.00034448639109143
0.40002395469335
-0.00035386660971719
0.40038480307989
-0.00036084833537685
0.40075488689162
-0.0003700837610275
0.40112943277969
-0.00037454583834402
-0.00038490751178436
0.4015143403421
0.37294824268349
-1.1862424607773e-05
0.37296549699794
-3.5923556256824e-05
0.3729947281274
-6.0598552117848e-05
0.37303627734637
-8.5970264515242e-05
0.37309052815821
-0.00011213475713448
0.37315797841138
-0.00013931259214551
0.37323930252477
-0.00016785153931582
0.37333531216357
-0.00019802512932948
0.37344681362964
-0.00022981895869912
0.37357445154068
-0.0002629000249578
0.37371860316458
-0.00029672046820391
0.37387936390285
-0.00033070269453408
0.37405657447596
-0.00036432519704453
0.37424989548914
-0.00039721855274801
0.37445884077715
-0.00042908324695253
0.3746828608716
-0.00045978916756167
0.37492131944063
-0.00048916079641515
0.3751736118282
-0.00051726056150742
0.37543903620513
-0.0005438941087907
0.37571702730285
-0.00056933567462306
0.37600680154853
-0.00059314952567599
0.37630790621195
-0.00061600066345785
0.37661936518228
-0.00063684048285739
0.3769410192895
-0.00065731042076139
0.37727148687812
-0.00067495390182966
0.37761136020043
-0.000693739854098
0.37795832854793
-0.00070781660494489
0.3783146668741
-0.00072642201003965
0.37867576991404
-0.00073564880362757
-0.00075666502393377
0.37904752750306
0.35201637473214
-1.7339524443138e-05
0.35203294810222
-5.2496814071885e-05
0.35206086409521
-8.8514432327375e-05
0.35210044486446
-0.00012555092210035
0.35215205088676
-0.00016374066976191
0.35221615284526
-0.00020341444324463
0.35229339968998
-0.00024509827911776
0.35238458307614
-0.00028920841299872
0.35249049827876
-0.00033573406136935
0.35261179344367
-0.00038419509236475
0.35274886806308
-0.00043379499264622
0.35290186018322
-0.00048369472207094
0.35307066983787
-0.00053313476153816
0.3532550310152
-0.0005815796420971
0.35345453758084
-0.00062858972680178
0.3536687275954
-0.00067397909819251
0.35389705016054
-0.00071748327946671
0.35413899325369
-0.00075920357400492
0.35439393663281
-0.00079883740865249
0.3546614107417
-0.00083680970520928
0.35494070076007
-0.00087243946668475
0.35523145640905
-0.00090675623554361
0.35553274389594
-0.00093812789332489
0.3558445265691
-0.00096909301751286
0.35616541233218
-0.00099583958856664
0.35649616529441
-0.0010244927395906
0.3568343568524
-0.0010460080859107
0.35718254179545
-0.0010746068764439
0.35753577892966
-0.0010888858636043
-0.0011213102533356
0.3579004242362
0.33225927327513
-2.2568741986804e-05
0.33227508427134
-6.8307708042847e-05
0.33230165715168
-0.0001150872098905
0.33233927248005
-0.00016316614865299
0.33238825973031
-0.00021272781999336
0.33244907129178
-0.00026422590670289
0.3325223450786
-0.00031837197019166
0.33260886497568
-0.00037572821654716
0.33270942405663
-0.00043629305116261
0.33282468160117
-0.00049945254800115
0.33295506718689
-0.00056418049186687
0.33310077099577
-0.00062939844666512
0.33326176315138
-0.00069412683517726
0.33343786394366
-0.00075768035444507
0.33362876064027
-0.00081948634555214
0.3338340946221
-0.00087931300390424
0.33405341482429
-0.00093680340725896
0.33428631994364
-0.00099210862029514
0.33453228462992
-0.0010448020231714
0.33479095609447
-0.0010954810988795
0.33506169750898
-0.0011431808111754
0.33534428789721
-0.0011893465541558
0.33563783546119
-0.0012316753881281
0.3359424665267
-0.0012737240138344
0.33625675953591
-0.0013101325286347
0.33658172343807
-0.0013494565722132
0.33691475890631
-0.00137904348434
0.33725884909541
-0.0014186969961134
0.33760860908426
-0.0014386457852566
-0.0014839198702365
0.33797121877128
0.31361102948548
-2.7540758052239e-05
0.3136260451912
-8.3323320426927e-05
0.31365124045372
-0.00014028237894442
0.31368685740268
-0.00019878300531677
0.31373318908829
-0.00025905941521683
0.31379066305588
-0.00032169978601651
0.31385990414235
-0.00038761297070459
0.3139416916978
-0.00045751568831817
0.3140368235037
-0.00053142477583514
0.31414597909982
-0.00060860806520559
0.31426962844473
-0.00068782976029961
0.31440802538309
-0.00076779531079537
0.31456122231098
-0.000847323691148
0.31472913931575
-0.0009255972893109
0.31491157047304
-0.0010019174349765
0.31510827547138
-0.0010760179360247
0.31531891687093
-0.0011474447422251
0.3155432210095
-0.0012164126954834
0.31578077106866
-0.0012823520201074
0.31603135129029
-0.0013460612589864
0.31629441418429
-0.0014062436443265
0.31656989340215
-0.001464825711356
0.31685694361373
-0.0015187255392456
0.31715588974415
-0.0015726700835296
0.31746527168674
-0.0016195144102674
0.3177864012746
-0.0016705860984481
0.31811647117446
-0.0017091133220012
0.31845898886541
-0.0017612146248638
0.31880802253757
-0.0017876793969481
-0.0018476149916121
0.31917171772273
0.29600940694225
-3.2245756980478e-05
0.29602358452978
-9.7500821158814e-05
0.29604733214647
-0.00016402990884116
0.29608084838413
-0.00023229915730379
0.29612438618913
-0.00030259713630476
0.29617834623206
-0.00037565974693539
0.29624333973903
-0.00045260639778685
0.29632014269485
-0.00053431856631093
0.29640956027378
-0.00062084227918249
0.29651229664164
-0.00071134435960421
0.29662886795157
-0.000804400999051
0.29675959932745
-0.00089852661755999
0.29690463432544
-0.00099235862220239
0.29706400341378
-0.0010849663126008
0.29723761857819
-0.0011755325362633
0.29742537071395
-0.0012637700102184
0.29762704849589
-0.0013491224641689
0.29784252103253
-0.0014318851732838
0.29807149291219
-0.0015113238420537
0.29831390341392
-0.0015884717037064
0.29856930594992
-0.0016616461239953
0.29883781113414
-0.0017333308394905
0.29911862760811
-0.0017995419573893
0.29941230849055
-0.0018663509099608
0.29971735427619
-0.0019245601397829
0.30003542247728
-0.0019886542428582
0.30036348092754
-0.0020371717151551
0.30070562610946
-0.0021033597497844
0.30105533654574
-0.002137389777904
-0.002214097707926
0.30142181932073
0.27939565428533
-3.6665447493614e-05
0.27940893124402
-0.00011077770209074
0.27943112472023
-0.00018622330747289
0.27946238593609
-0.00026356029673364
0.2795029241021
-0.00034313522757611
0.27955310995993
-0.0004258455318464
0.27961353914411
-0.00051303551106571
0.27968498302208
-0.00060576237532326
0.27976825360299
-0.00070411279328871
0.2798640795568
-0.00080717024860215
0.27997302483673
-0.00091334621633572
0.28009548971874
-0.0010209914388742
0.2802317144994
-0.0011285833442139
0.28038184739985
-0.0012350991561431
0.28054592669883
-0.0013396117801354
0.28072398437582
-0.0014418276335275
0.28091594561518
-0.0015410836512779
0.28112183467576
-0.0016377741826265
0.28134148948853
-0.0017309786045951
0.28157502026552
-0.0018220024310207
0.28182209382594
-0.0019087196352993
0.28208301843432
-0.0019942553988556
0.28235706862714
-0.0020735921013202
0.28264505191765
-0.0021543341512801
0.2829454395352
-0.0022249477078683
0.28326026625635
-0.0023034809138793
0.28358628315045
-0.0023631885585602
0.28392821045119
-0.0024452869997482
0.28427894817185
-0.0024881274490759
-0.002583941151834
0.28464879166873
0.26371432075691
-4.0776686068834e-05
0.26372662333821
-0.00012308021245852
0.26374713732397
-0.00020673722250247
0.26377596307116
-0.00029238597418647
0.26381326215627
-0.00038043424442041
0.26385937125856
-0.00047195456740322
0.2639148658555
-0.0005685300430124
0.26398050788725
-0.00067140434375374
0.26405711224711
-0.00078071709169833
0.26414543030522
-0.0008954882470083
0.26424607378111
-0.0010139896344397
0.26435951830617
-0.0011344359078687
0.26448610314603
-0.0012551681298463
0.26462609795091
-0.0013750939083804
0.26477967294236
-0.0014931867205825
0.26494700740181
-0.0016091620432968
0.26512817175198
-0.0017222479531005
0.26532335348938
-0.0018329558726443
0.26553253527609
-0.0019401603449104
0.26575600898032
-0.0020454760894307
0.26599356735489
-0.0021462779646594
0.26624573175877
-0.0022464197577192
0.26651185604314
-0.0023397163409065
0.26679302231193
-0.0024355003751365
0.26708769188581
-0.0025196172367195
0.26739829439393
-0.0026140833765044
0.26772140230433
-0.0026862964231285
0.26806235854747
-0.0027862431971397
0.26841355433989
-0.0028393231970233
-0.0029567091764602
0.26878632241227
0.24891307102113
-4.4554956629925e-05
0.24892432331426
-0.00013433244277126
0.24894302849831
-0.00022544234395926
0.24896923298075
-0.00031859039492914
0.24900304694302
-0.00041424814628539
0.24904476823239
-0.00051367579771074
0.24909494639423
-0.00061870814731461
0.24915432750742
-0.00073078540085044
0.24922372337528
-0.00085011290511384
0.24930390232992
-0.00097566714873123
0.24939552022209
-0.0011056074753769
0.24949912645396
-0.0012380420900154
0.24961515968155
-0.0013712013093351
0.24974400991139
-0.0015039440915008
0.24988598193866
-0.0016351587025784
0.25004140287399
-0.0017645829345045
0.25021049554569
-0.0018913405818608
0.25039361085015
-0.0020160711350043
0.2505908901798
-0.0021374396333072
0.25080280577966
-0.0022573916485348
0.25102929712203
-0.0023727692667814
0.25127110033243
-0.0024882229280109
0.25152767066228
-0.00259628663082
0.25180037563175
-0.0027082053044855
0.25208769151974
-0.0028069330844685
0.25239244500596
-0.0029188368220387
0.25271109271761
-0.0030049440937461
0.25304955642981
-0.003124706868364
0.25339985256089
-0.0031896192881806
-0.0033310838773125
0.25377422730489
0.23494250947242
-4.7976814595638e-05
0.23495264033058
-0.00014446324444118
0.23496941601319
-0.00024221797027147
0.23499282651886
-0.00034200084500147
0.2350229274065
-0.00044434897939735
0.23505997295717
-0.00055072129489313
0.23510448022092
-0.00066321535883505
0.23515717159375
-0.00078347672260924
0.23521884780038
-0.00091178906203128
0.23529028663067
-0.001047105930553
0.2353721819155
-0.0011875027131686
0.23546515066024
-0.0013310107889717
0.23556972741567
-0.0014757780203701
0.23568641937918
-0.0016206360118049
0.23581566539044
-0.0017644046718984
0.23595793533846
-0.0019068528415816
0.23611361014088
-0.00204701534441
0.23628319484902
-0.0021856558040447
0.23646700961831
-0.0023212543642954
0.23666568346651
-0.0024560654589298
0.23687934826802
-0.0025864340310003
0.23710891225382
-0.0027177868767414
0.23735399601499
-0.0028413703551642
0.23761622177785
-0.0029704310304793
0.23789411889232
-0.0030848301620763
0.23819092178443
-0.0032156396770311
0.2385030239988
-0.0033170462708257
0.23883684196107
-0.0034585247935604
0.23918424089137
-0.0035370181824477
-0.0037049931717737
0.23955815022483
0.2217560149437
-5.1021920126992e-05
0.22176496382463
-0.00015341207536922
0.22177970819884
-0.00025696229460096
0.22180018015788
-0.00036247275471691
0.22182637825002
-0.00047054702307877
0.22185850883402
-0.0005828518312524
0.22189704960913
-0.00070175608730076
0.22194269077817
-0.00082911784592854
0.22199621258494
-0.00096531082417108
0.22205839331704
-0.0011092866190193
0.22212995591181
-0.0012590652654805
0.2222115772269
-0.0014126320626177
0.22230387976253
-0.0015680805157174
0.22240748080666
-0.0017242370166169
0.22252294728846
-0.0018798711154475
0.222650887953
-0.0020347934687241
0.22279183493734
-0.0021879622922516
0.22294644553742
-0.002340266368279
0.22311521533273
-0.0024900241244663
0.22329892518058
-0.0026397752720598
0.22349791616211
-0.002785424978276
0.2237132338451
-0.0029331045256745
0.22394474065969
-0.0030728771359201
0.22419421602534
-0.0032199063622787
0.22446037703462
-0.0033509911375258
0.22474677699759
-0.0035020396059691
0.225049823023
-0.0036200922620904
0.22537637767167
-0.0037850794083349
0.2257183846559
-0.0038790251337269
-0.0040757075924205
0.22608909911234
0.20930958461602
-5.3674543062487e-05
0.20931730617244
-0.00016113358699032
0.2093299443013
-0.00026960037868686
0.20934737277571
-0.00037990118474395
0.2093695317281
-0.0004927059317237
0.20939657586635
-0.00060989592634854
0.20942893698008
-0.00073411715862139
0.20946726442979
-0.00086744525390053
0.20951230811802
-0.0010103544714959
0.20956483670792
-0.0011618151687694
0.209625591779
-0.0013198202973286
0.20969529971692
-0.0014823399620934
0.2097746602752
-0.0016474410365005
0.20986439050983
-0.0018139672145165
0.20996517431537
-0.0019806548851567
0.2100777505786
-0.0021473696968326
0.21020279198881
-0.0023130036681305
0.21034110529358
-0.0024785796392917
0.21049334250512
-0.0026422613028905
0.21066044931461
-0.0028068820488513
0.21084294478083
-0.0029679204122449
0.2110420387786
-0.0031321984914488
0.21125782103426
-0.0032886593598419
0.21149220304873
-0.0034542883450991
0.21174420061737
-0.0036029886746027
0.21201751382033
-0.0037753527773121
0.21230878957194
-0.0039113679820612
0.21262516856199
-0.0041014583671057
0.21295888647784
-0.0042127430191993
-0.0044399784198585
0.21332315733829
0.19756168668893
-5.5924663539152e-05
0.19756815376434
-0.0001676006222939
0.19757864258252
-0.00028008915670912
0.19759296952567
-0.00039422808796704
0.19761101608928
-0.00051075245585556
0.19763288247806
-0.00063176227604272
0.19765894865985
-0.00076018330187428
0.19768981481746
-0.00089831137341444
0.19772619079315
-0.0010467304097097
0.19776882492286
-0.0012044492615291
0.1978184660665
-0.001369461404726
0.1978758777925
-0.0015397516524286
0.1979418243177
-0.0017133875267633
0.19801710875244
-0.0018892516149284
0.19810251845382
-0.002066064552934
0.19819890849889
-0.0022437597088617
0.1983070777655
-0.0024211729023727
0.19842797287343
-0.0025994747153554
0.19856238420141
-0.0027766725995591
0.19871142424732
-0.0029559220638513
0.19887575336737
-0.0031322495018117
0.199056783335
-0.0033132284288708
0.19925476104013
-0.003486637035035
0.19947179471624
-0.003671321991402
0.19970717005486
-0.0038383639835513
0.19996466213526
-0.0040328448280488
0.2002413795809
-0.0041880853980552
0.20054443305156
-0.0044045118085118
0.20086670710628
-0.0045350170455066
-0.0047942429081329
0.2012209716255
0.18647312128981
-5.7768548595971e-05
0.18647832669461
-0.00017280599071642
0.18648665777479
-0.00028842020035327
0.18649787555465
-0.00040544583138541
0.18651180388701
-0.0005246807520761
0.18652848697275
-0.00064844532585891
0.18654824814761
-0.00077994444117801
0.18657163090264
-0.00092169409315822
0.18659929580665
-0.0010743952788796
0.18663196021788
-0.0012371136382569
0.18667036843395
-0.0014078695868092
0.18671530781476
-0.0015846909996642
0.18676759244616
-0.0017656721251462
0.18682809585878
-0.0019497549949788
0.18689769198005
-0.002135660642213
0.18697733612461
-0.0023234038218928
0.18706793432768
-0.002511771074477
0.18717055872649
-0.0027020990836615
0.18728611725059
-0.0028922310936814
0.18741588012281
-0.0030856849065003
0.18756062577904
-0.0032769951289077
0.18772196401805
-0.0034745666390925
0.18790027166457
-0.0036649446530934
0.18809787022567
-0.0038689205242618
0.18831427430653
-0.0040547680363638
0.18855333908234
-0.0042719095759285
0.18881272756001
-0.0044474738478578
0.18909924193093
-0.0046910261519945
0.18940687655755
-0.0048426516454447
-0.0051347778155515
0.18974741149409
0.17600688901931
-5.9208776217432e-05
0.17601084587565
-0.00017676281373954
0.17601704581081
-0.00029462010197266
0.17602519756092
-0.00041359754795593
0.17603506968433
-0.00053455284213316
0.17604664976346
-0.00066002537174948
0.17606020088348
-0.00079349552821467
0.17607620379639
-0.00093769697325824
0.17609526182906
-0.0010934532790665
0.17611805148512
-0.0012599032620605
0.17614530069128
-0.0014351187611028
0.17617780680525
-0.0016171970820324
0.17621641793887
-0.0018042832275843
0.17626206112188
-0.0019953981471424
0.1763156777948
-0.0021892772847304
0.17637830517934
-0.0023860311764034
0.17645093572558
-0.0025844015911757
0.17653474703457
-0.0027859103635266
0.17663074645255
-0.0029882304830415
0.17674033385352
-0.003195272279299
0.17686440362495
-0.0034010648726327
0.17700471811908
-0.0036148811059511
0.17716180031011
-0.0038220268172398
0.17733813377623
-0.004045253963843
0.17753347931108
-0.0042501135449366
0.17775171671147
-0.0044901469502441
0.17799116511984
-0.0046869222302661
0.17825805937171
-0.0049579203783182
0.17854794850438
-0.005132540753182
-0.0054578361993144
0.17887100691548
0.16612806753416
-6.0254301083804e-05
0.16613080808949
-0.00017950333815522
0.1661349361921
-0.00029874817342745
0.16614011328059
-0.00041877460525464
0.16614605575705
-0.00054049528757756
0.16615269502755
-0.00066666461133895
0.16616023148591
-0.00080103195592508
0.16616907816497
-0.0009465436218459
0.16617977435611
-0.0011041494400438
0.16619294708645
-0.0012730759624493
0.16620929699672
-0.0014514686417475
0.16622961813526
-0.0016375181911701
0.16625477669264
-0.0018294417559006
0.16628573554429
-0.0020263569699723
0.16632348414026
-0.0022270258522296
0.16636912054644
-0.0024316675544386
0.16642370366619
-0.0026389846832096
0.16648849015057
-0.0028506968205975
0.16656457171311
-0.003064312018786
0.16665344086776
-0.0032841414076674
0.16675610517287
-0.0035037291520098
0.16687442774853
-0.003733203656437
0.16700909955602
-0.0039566986000821
0.16716267763382
-0.0041988320174981
0.16733525340614
-0.0044226892934975
0.16753054515244
-0.0046854386731237
0.16774774522426
-0.0049041222788144
0.16799220405191
-0.0052023791830811
0.16826140992341
-0.0054017466022006
-0.00575981495957
0.16856338870857
0.15680369417034
-6.0919753980136e-05
0.15680526818615
-0.00018107732490994
0.15680741365254
-0.00030089361057562
0.15680974907366
-0.00042110999723746
0.1568119440291
-0.00054269021419204
0.15681387612063
-0.00066859667430325
0.15681568205812
-0.00080283786528405
0.15681770381599
-0.00094856535192647
0.15682041133105
-0.0011068569277753
0.15682437452514
-0.0012770391295487
0.15683025664381
-0.0014573507338326
0.15683883556932
-0.0016460970903508
0.15685098036981
-0.0018415865303834
0.15686767181698
-0.0020430483913657
0.15688992879759
-0.0022492828073699
0.15691888765411
-0.0024606263857744
0.15695565449946
-0.002675751503765
0.15700153689268
-0.0028965791894666
0.15705769373931
-0.0031204688415989
0.15712567355108
-0.0033521211962284
0.15720658985558
-0.0035846454339831
0.15730234517479
-0.0038289589538689
0.15741384071529
-0.0040681941195111
0.15754356103721
-0.0043285523190845
0.15769210052049
-0.0045712287570122
0.15786272223573
-0.0048560603691046
0.15805575601994
-0.0050971560439869
0.15827535881144
-0.0054219819558524
0.15852124609203
-0.0056476338641461
-0.0060373751161599
0.15879880626974
0.14800265561764
-6.1224415282787e-05
0.14800312750664
-0.00018154918581631
0.14800340484784
-0.00030117092369082
0.1480030693317
-0.00042077445345636
0.14800174774692
-0.00054136860248072
0.14799926665817
-0.00066611555931715
0.14799570017199
-0.00079927135369542
0.14799131798536
-0.00094418314065204
0.14798651740147
-0.001102056320055
0.14798180527981
-0.0012723269847043
0.14797779909092
-0.0014533445223755
0.14797524855604
-0.0016435465333307
0.14797501170351
-0.0018413496561225
0.1479780693358
-0.0020461060021995
0.14798545234676
-0.0022566657971867
0.14799831271579
-0.0024734867339421
0.14801778471743
-0.0026952234849435
0.14804519965248
-0.0029239941045284
0.14808176461513
-0.0031570337848699
0.14812904879436
-0.0033994053568288
0.14818826386551
-0.0036438604873467
0.14826128240774
-0.0039019774793124
0.14834926603133
-0.0041561777272917
0.14845446138862
-0.0044337476616246
0.14857813290069
-0.0046949002551749
0.1487228486941
-0.0050007761493895
0.14889023956471
-0.0052645469017993
0.14908305431858
-0.0056147966971451
0.14930346846559
-0.0058680479981773
-0.0062876076164347
0.14955370098139
0.13969558455021
-6.1191678675105e-05
0.13969503098735
-0.00018099559373806
0.13969357458645
-0.00029971449376029
0.13969076694767
-0.00041796678669909
0.13968619822796
-0.00053679985624865
0.1396796472182
-0.00065956452448354
0.13967112678694
-0.00079075089894137
0.13966083407942
-0.00093389041106284
0.13964909222075
-0.0010903144407093
0.13963634074755
-0.0012595754919643
0.13962314530871
-0.0014401490649846
0.13961021688513
-0.001630618091891
0.13959839077965
-0.0018295235333496
0.13958863071152
-0.0020363459171554
0.1395819643978
-0.0022499994669109
0.1395795372133
-0.0024710595332188
0.13958249424819
-0.0026981805040304
0.13959216373673
-0.0029336635778167
0.13960978192421
-0.0031746519578105
0.13963690650026
-0.0034265299192695
0.13967483305711
-0.003681787031667
0.13972535508514
-0.0039524994961122
0.13978989819203
-0.0042207208243162
0.13987039218647
-0.004514241647666
0.13996876930845
-0.0047932773700352
0.14008685962099
-0.0051188664559667
0.14022759561016
-0.0054052828855894
0.14039219576803
-0.0057793968497459
0.14058553253726
-0.0060613847611986
-0.0065081865803946
0.14080611151013
0.13185476089244
-6.0847810269111e-05
0.13185326632163
-0.00017950098788672
0.13185022488808
-0.00029667302509798
0.13184516500148
-0.00041290686675439
0.13183764663812
-0.0005292814620192
0.13182740446324
-0.00064932232130341
0.13181439231304
-0.00077773872300502
0.13179873542031
-0.00091823349493382
0.13178068282423
-0.0010722618233494
0.13176060424648
-0.0012394968946417
0.13173900981928
-0.0014185546196282
0.13171656227215
-0.001608170527614
0.13169406514058
-0.0018070263853974
0.13167244822233
-0.0020147289830307
0.13165272482798
-0.002230276057135
0.13163601035318
-0.0024543450433784
0.13162344950245
-0.0026856196387717
0.1316163372556
-0.0029265513170884
0.13161592599405
-0.0031742406832532
0.13162373038848
-0.003434334301859
0.13164110438139
-0.0036991610141375
0.13166975853715
-0.0039811536431574
0.13171129693479
-0.004262259215102
0.1317674273811
-0.0045703720891597
0.13184049789171
-0.0048663478777202
0.13193180920317
-0.0052101777662314
0.13204528916608
-0.0055187628483274
0.1321807937542
-0.0059149014378606
0.13234589213273
-0.0062264831383256
-0.0066975157880159
0.13253522134478
0.1244540186248
-6.0220053482287e-05
0.12445167193221
-0.00017715424584108
0.12444720198527
-0.00029220302738846
0.12444012075297
-0.00040582558576663
0.12442996510634
-0.00051912577016719
0.12441643201293
-0.00063578918639482
0.12439942000486
-0.00076072667707561
0.12437898138218
-0.00089779483763025
0.1243552907253
-0.001048571134656
0.12432864785619
-0.0012128539959533
0.12429950657224
-0.0013894133078755
0.12426847347605
-0.0015771374048716
0.12423631420204
-0.0017748670857721
0.12420390833919
-0.0019823230952043
0.12417224867647
-0.0021986163699813
0.12414239411027
-0.0024244904532435
0.12411548812755
-0.0026587136327461
0.12409275076633
-0.0029038139333955
0.12407545628493
-0.0031569461805205
0.12406502800789
-0.0034239060050031
0.12406286244865
-0.0036969954369566
0.12407060418527
-0.0039888953641581
0.12408987625994
-0.0042815312766982
0.12412244120073
-0.0046029370196944
0.12417055492095
-0.004914461590421
0.12423563703807
-0.0052752598784178
0.12432159694722
-0.005604722754328
0.12442791902728
-0.0060212235153245
0.12456371089846
-0.0063622750054349
-0.0068549442787729
0.12472113939706
0.11746865947163
-5.9335682735481e-05
0.11746555038253
-0.00017404508110128
0.11745981302772
-0.00028646559395618
0.1174509484159
-0.00039696089725655
0.11743847313504
-0.00050665041665694
0.11742205211022
-0.00061936809345393
0.11740153912283
-0.00074021362596571
0.11737691508888
-0.0008731707437985
0.11734827821336
-0.0010199342024709
0.11731585937793
-0.0011804351063521
0.11728005573587
-0.0013536096135502
0.11724141240526
-0.0015384940233585
0.11720065227333
-0.0017341069039478
0.11715859095847
-0.0019402617311771
0.11711619792537
-0.0021562232883402
0.11707445039474
-0.0023827428747423
0.11703450047711
-0.0026187636680669
0.11699743913592
-0.0028667525462878
0.11696459976231
-0.0031241067625092
0.11693721743875
-0.0033965236391469
0.1169167929877
-0.0036765709461781
0.11690481575817
-0.003976918098122
0.11690288067106
-0.004279596156571
0.11691297496465
-0.0046130312841437
0.11693676174225
-0.0049382483426963
0.11697681069772
-0.0053153088123812
0.11703521977788
-0.0056631318159386
0.11711374417501
-0.0060997478954454
0.11721818450831
-0.0064667153208983
-0.0069819585750805
0.11734519882783
0.11087537296448
-5.8223653529204e-05
0.11087159075104
-0.00017026275646727
0.11086474747774
-0.00027962220519025
0.11085434371995
-0.00038655702586709
0.11083988379759
-0.00049219038502784
0.11082098721184
-0.00060047140334281
0.1107974611132
-0.00071668742758867
0.1107692268428
-0.00084493637755699
0.11073631714093
-0.00098702440790491
0.11069890094186
-0.0011430188169167
0.11065731419057
-0.0013120227736502
0.11061203801244
-0.0014932177578329
0.11056374704789
-0.0016858158529525
0.11051318506757
-0.001889699665124
0.11046129035541
-0.002104328491209
0.11040894534045
-0.0023303977756112
0.11035731428999
-0.0025671325345698
0.11030731545435
-0.0028167536291174
0.11026039456873
-0.0030771857975645
0.1102174630065
-0.0033535920004782
0.11018032208091
-0.0036394299479282
0.11014995633067
-0.003946552279633
0.11012837596392
-0.0042580157265204
0.11011716212277
-0.0046018173848288
0.11011786427778
-0.0049389504448792
0.11013407987899
-0.005331524366169
0.11016523289275
-0.005694284787098
0.11021949532754
-0.0061540102908114
0.11028843963209
-0.0065356595864911
-0.0070836321061296
0.11039011320927
0.10465216720546
-5.6924759367995e-05
0.10464781200813
-0.00016590741075959
0.10464001024041
-0.00027182028623869
0.1046282866907
-0.000374833327249
0.10461217955167
-0.00047608310140825
0.10459126625694
-0.00057955796867863
0.10456524748829
-0.00069066852319728
0.10453396016005
-0.00081364891692884
0.10449741039633
-0.00095047451431701
0.10445573206051
-0.0011013403530064
0.10440920126304
-0.0012654918493299
0.10435823645329
-0.0014422528221462
0.10430345737454
-0.001631036648967
0.10424553601295
-0.0018317781790213
0.10418536356761
-0.0020441559221083
0.1041237375505
-0.0022687716358521
0.10406180919966
-0.0025052040624957
0.10400032222484
-0.0027552665353032
0.10394083018239
-0.0030176936391452
0.10388384010007
-0.0032966018065521
0.1038316579644
-0.003587247705969
0.10378427314343
-0.0038991673588355
0.10374511609596
-0.0042188585859477
0.10371352689788
-0.0045702281006846
0.10369384952637
-0.0049192729944687
0.10368604528636
-0.0053237200548795
0.10369237400864
-0.0057006134451471
0.1037228347079
-0.0061844709311071
0.1037589425847
-0.0065717674064222
-0.0071638995041586
0.10383921005015
0.098778255064502
-5.5461395434698e-05
0.098773469072768
-0.00016112124635657
0.098764841820264
-0.00026319285968338
0.098751976133007
-0.00036196746840173
0.098734446853089
-0.00045855365360493
0.098711906300696
-0.00055701725205433
0.098683969654592
-0.00066273171584397
0.098650217318715
-0.00077989642184018
0.098610699616494
-0.00091095665412404
0.09856550367118
-0.0010561442502875
0.098514863165673
-0.0012148511866766
0.098459153464504
-0.0013865429638642
0.098398927515313
-0.0015708105428087
0.098334791598118
-0.0017676421050558
0.098267568032353
-0.0019769322001673
0.098197995675688
-0.002199199123927
0.098127157763864
-0.002434365997176
0.09805569462698
-0.0026838032476403
0.097985133010581
-0.0029471318763386
0.097915713429049
-0.003227182084652
0.097850034813523
-0.003521568958011
0.097787184278718
-0.0038363167005995
0.097732208538387
-0.0041638827318172
0.097681220907722
-0.0045192403658435
0.097644278551654
-0.0048823305441331
0.09761116589199
-0.0052906073114482
0.097599793379588
-0.0056892408588717
0.09759218771841
-0.0061768652027503
0.097604217719896
-0.0065837973412725
0.097698579402151
-0.0072582611084206
0.39695236911538
0.0045619712776794
0.39254828966797
0.0044040794972316
0.38830652792362
0.0042417617937534
0.38423137567317
0.0040751523000578
0.38032695031343
0.0039044254097132
0.37659720573366
0.0037297446304014
0.37304593263514
0.0035512731497412
0.36967675663696
0.0033691760501484
0.36649313974948
0.0031836169400217
0.36349838535414
0.0029947544486134
0.3606956413543
0.002802744053593
0.3580878959085
0.0026077455001966
0.35567796226099
0.0024099337022708
0.35346845765363
0.0022095046626564
0.35146178411341
0.0020066735957362
0.34966012185205
0.0018016623173043
0.34806544105838
0.0015946808496945
0.34667953482314
0.0013859062915858
0.34550406749606
0.0011754673833811
0.34454062963107
0.00096343792152379
0.34379078318291
0.00074984650457778
0.34325608296708
0.00053470027242693
0.34293804978227
0.00031803324124667
0.34283801436055
0.00010003547832871
0.34295781614334
-0.00011980172634644
0.34329883664614
-0.00034102044615968
0.34386179830833
-0.00056296160570783
0.34464721845694
-0.00078542009191468
0.34565516381281
-0.0010079452993486
0.34688517290374
-0.0012300090342191
0.34833624348893
-0.001451070528729
0.35000684038348