/*--------------------------------*- C++ -*----------------------------------*\
| =========                 |                                                 |
| \\      /  F ield         | OpenFOAM: The Open Source CFD Toolbox           |
|  \\    /   O peration     | Version:  2112                                  |
|   \\  /    A nd           | Website:  www.openfoam.com                      |
|    \\/     M anipulation  |                                                 |
\*---------------------------------------------------------------------------*/
FoamFile
{
    version     2.0;
    format      ascii;
    arch        "LSB;label=32;scalar=64";
    class       volScalarField;
    location    "4.4";
    object      p;
}
// * * * * * * * * * * * * * * * * * * * * * * * * * * * * * * * * * * * * * //

dimensions      [0 2 -2 0 0 0 0];

internalField   nonuniform List<scalar> 
22000
(
0.11533345411533
0.11529286684677
0.11520824893791
0.11507765636685
0.11490030081116
0.11467625815604
0.11440589732963
0.11408952554265
0.11372730827127
0.11331933300564
0.11286568503136
0.11236648667935
0.1118218977582
0.11123211460362
0.11059736271685
0.1099179091893
0.10919405321063
0.10842615148076
0.10761458804664
0.10675981584325
0.10586227927112
0.10492252059116
0.10394101828041
0.10291849431952
0.10185552534165
0.10075319949978
0.09961199024607
0.098433385523768
0.097217411708504
0.095966618649584
0.11609848299795
0.11605608405293
0.11596954797365
0.11583715334591
0.11565804466379
0.1154321610864
0.11515976351943
0.1148410951572
0.11447628227333
0.11406537857797
0.11360843114084
0.11310552033031
0.11255675905635
0.11196229465643
0.11132229579995
0.11063697157404
0.10990655390867
0.10913134582263
0.10831166963734
0.10744795049749
0.10654057010198
0.10559006184401
0.10459679185721
0.10356151935243
0.10248465362776
0.10136745350905
0.10021000880091
0.09901413602215
0.097778883617725
0.096507269519167
0.11749568227732
0.11745259439541
0.11736481324575
0.1172307828712
0.11704971335134
0.11682150657921
0.11654634751917
0.11622440611431
0.11585574447925
0.11544035429726
0.11497821420906
0.11446932997787
0.11391373075289
0.11331147758026
0.11266264252091
0.11196734151114
0.11122569935964
0.11043793298853
0.10960425229251
0.10872501799337
0.10780047263919
0.10683111347469
0.10581709212391
0.10475923982469
0.1036576462713
0.10251390342186
0.10132740471104
0.10010073040105
0.098831172664502
0.097522964003955
0.1194237763657
0.11938024449118
0.11929155968851
0.11915616999196
0.11897327913801
0.11874275776773
0.11846473570198
0.11813931180163
0.11776646537685
0.11734609655179
0.1168780815891
0.11636231628527
0.11579870709445
0.11518718825073
0.1145276895579
0.11382019025528
0.11306465757727
0.11226117793936
0.11140978565857
0.11051073082849
0.10956403737648
0.10857014375884
0.10752888884084
0.10644119756071
0.10530666114928
0.10412731222073
0.10290149936683
0.1016328726614
0.10031613142747
0.098957212056576
0.12179193430791
0.12174810998648
0.1216588161552
0.12152249380607
0.12133831945249
0.12110611219077
0.12082592806258
0.12049777398426
0.12012152029547
0.11969694439979
0.11922378420766
0.11870178633642
0.11813069095653
0.11751026056955
0.11684023234075
0.1161203985786
0.11535050820044
0.11453046083811
0.11366004159831
0.1127393392592
0.11176807728659
0.11074660712118
0.10967434245549
0.10855230590407
0.1073794012407
0.10615820112041
0.10488567053178
0.10356684207657
0.10219306025228
0.10077252406271
0.12451859369123
0.12447474219812
0.1243853754488
0.12424893731359
0.12406457002026
0.12383202054349
0.12355124519127
0.12322213161657
0.12284441173863
0.12241770743135
0.12194158074538
0.1214155880627
0.1208392575068
0.12021213226687
0.11953370327749
0.11880352199707
0.11802105462115
0.1171859547697
0.11629767998532
0.11535609761382
0.11436053140632
0.11331119812203
0.11220695577998
0.11104891630234
0.10983509701406
0.10856869447476
0.10724494229802
0.10587054456404
0.10443272500221
0.10294243438429
0.12752994008893
0.12748646454203
0.12739783322553
0.12726250364654
0.12707957921665
0.12684871682629
0.12656974872948
0.12624241679032
0.12586628570517
0.12544079023157
0.12496528035964
0.12443908193164
0.12386146433189
0.12323170076671
0.12254897718163
0.12181254372539
0.12102151273087
0.12017522455279
0.11927272328663
0.11831358640614
0.11729663134209
0.11622188515335
0.11508751178323
0.11389469457924
0.11264035310314
0.11132837015856
0.10995188494353
0.10851952290922
0.10701360709578
0.10544824759821
0.13075861919917
0.13071603832964
0.13062920232158
0.13049658237085
0.13031723760714
0.13009072080092
0.12981671926955
0.12949480528258
0.12912434973789
0.1287045700957
0.12823456880464
0.12771340104858
0.12714003149264
0.12651341391237
0.12583237352556
0.12509580085771
0.12430238551676
0.12345108475332
0.12254043956213
0.12156966000089
0.12053693940622
0.11944204764648
0.11828229475727
0.11705889680191
0.11576743654479
0.11441250572101
0.11298477653565
0.11149498631432
0.10991980524318
0.10827686725733
0.13414299413861
0.1341019269551
0.1340181539024
0.13389016097214
0.13371695586718
0.13349797742321
0.1332327524341
0.13292066283474
0.1325608622344
0.13215232517464
0.13169387709603
0.13118426815396
0.13062211825787
0.13000601523779
0.12933437023489
0.12860565236213
0.12781805890301
0.12697008731808
0.1260596859532
0.12508561539593
0.12404532404038
0.12293825660195
0.12176070216314
0.12051386673229
0.11919177653566
0.11779968471852
0.11632550090308
0.11478201185159
0.11313956650298
0.11141934265911
0.13762677620785
0.13758792013841
0.13750863035237
0.13738741938746
0.13722323843685
0.13701540332048
0.13676327062482
0.13646601961073
0.1361225703214
0.1357316344142
0.13529173574563
0.1348012906156
0.13425854019385
0.13366166508151
0.13300861634657
0.13229738565409
0.13152561863957
0.13069127760398
0.12979163891089
0.12882491846902
0.12778771314452
0.12667903141167
0.12549401962749
0.12423371238182
0.12289054998636
0.12147007445904
0.11995781969898
0.11836776246073
0.11666435679172
0.11487113402031
0.14115886651506
0.1411229658165
0.14104967436196
0.14093755181041
0.14078549446374
0.14059268787949
0.14035831181407
0.14008133685794
0.1397604412007
0.13939406266561
0.13898040947782
0.13851754535136
0.13800330901597
0.13743544472731
0.13681140941493
0.13612866960524
0.13538427104954
0.13457556272434
0.13369909309551
0.132752403741
0.13173120250845
0.1306338309421
0.12945434466198
0.12819315281524
0.12684139299518
0.12540401388388
0.12386487501367
0.12223799956831
0.12048416253443
0.11862842548321
0.14469338065794
0.14466119744537
0.14459545674282
0.14449479115126
0.14435805074385
0.14418428870679
0.14397250574785
0.14372146496046
0.14342960446159
0.14309508823986
0.1427158058609
0.14228946251929
0.14181348437238
0.14128516177368
0.14070143462789
0.14005921213696
0.13935490361529
0.13858518612025
0.13774582884385
0.1368336003897
0.13584325388707
0.13477232301649
0.13361365841698
0.1323669490524
0.13102169337301
0.12958246629891
0.12803069224881
0.1263809328322
0.12458938394706
0.12268224352797
0.14818973737314
0.14816202323386
0.14810536616674
0.14801850037958
0.14790024415295
0.14774952304393
0.1475651629638
0.14734572807197
0.14708942792809
0.1467941643198
0.14645751771898
0.14607684214619
0.14564915517425
0.14517129397393
0.14463967604727
0.14405064005225
0.14339993806722
0.14268354344932
0.14189639990113
0.14103444292727
0.1400913909857
0.1390638810387
0.13794342900168
0.1367288975218
0.1354079264496
0.13398461840465
0.13243757444818
0.13078190425315
0.12896819649971
0.12702467778525
0.15161273357916
0.15159020285617
0.15154408889622
0.15147325768523
0.15137651415806
0.15125266751889
0.15110038065613
0.15091803531862
0.15070363339805
0.15045483770032
0.15016894280951
0.14984297439375
0.14947356266166
0.14905711056012
0.14858952708811
0.14806658910937
0.14748338902408
0.14683518629267
0.14611607631433
0.14532112691446
0.14444296510935
0.14347726521987
0.14241409809306
0.14125141604427
0.13997477238833
0.13858774563443
0.13706562093985
0.13542399063181
0.13360690896691
0.13164242423024
0.15493255456214
0.15491586121463
0.15488162838337
0.15482888480431
0.15475644353302
0.15466301412497
0.15454711553744
0.15440697206239
0.15424040840321
0.15404488282053
0.1538174402023
0.1535548152856
0.15325328804379
0.15290886420917
0.15251697818695
0.15207287599822
0.15157101358707
0.15100595307318
0.15037094262231
0.14966017764081
0.14886516518839
0.14798058006445
0.14699497301871
0.14590531079563
0.14469492880259
0.1433667085757
0.14189252181251
0.14028785102291
0.13849008546999
0.13652535896456
0.15812468997421
0.15811440598082
0.15809323309734
0.15806038931418
0.15801471854597
0.1579548525839
0.15787919225947
0.15778583691372
0.15767247303617
0.15753639855021
0.15737445644543
0.15718314146145
0.15695843595049
0.15669600319112
0.15639085664037
0.15603776547902
0.15563059680366
0.15516326031969
0.15462818908521
0.15401872874968
0.15332527334863
0.15254148526688
0.15165437588942
0.15065984312249
0.14953897486938
0.1482937373976
0.14689251176725
0.14535023146234
0.14359699811384
0.14165578438643
0.16116975808931
0.16116636169596
0.16115923034059
0.16114780750444
0.16113099172461
0.16110735866689
0.16107522169268
0.16103259411981
0.16097707016198
0.16090583939
0.16081560039845
0.16070267049097
0.16056280120915
0.16039138437983
0.16018308478478
0.15993226932995
0.1596322875991
0.15927646730797
0.15885649082101
0.15836490682544
0.15779104771921
0.15712756952798
0.15635998299485
0.15548305223327
0.15447562407753
0.153338630548
0.15203682225588
0.15058444864272
0.1489035046924
0.14701300926661
0.16405320513736
0.16405707200036
0.1640647598129
0.16407596358715
0.16408965848762
0.1641043938592
0.16411843030147
0.1641297376928
0.16413586923714
0.16413396415588
0.16412064190903
0.16409211375379
0.16404397859919
0.16397144023563
0.16386890276574
0.16373042310912
0.16354892653317
0.16331725355573
0.16302642955628
0.16266829053941
0.16223119862107
0.16170685280329
0.16107934285785
0.16034228470141
0.15947231002226
0.15846925471323
0.15729408043001
0.15596041685807
0.15438136204251
0.15257145633617
0.16676495134601
0.1667763452711
0.16679940538671
0.16683410589945
0.16687952498588
0.16693420881766
0.16699640106723
0.16706407396441
0.16713479340859
0.16720570876348
0.16727343115341
0.16733414387584
0.16738338180535
0.16741625396695
0.16742700598557
0.16740949065975
0.16735632213872
0.16725996874855
0.16711091788394
0.16690040459152
0.16661594039781
0.16624835888858
0.16578045177882
0.16520475048611
0.16449575522098
0.16365221139942
0.16263111769973
0.16144543990733
0.15999880275906
0.15830099554042
0.16929893860411
0.16931802041301
0.16935679582938
0.16941553753294
0.16949344397926
0.16958908861694
0.16970073985083
0.16982641983375
0.16996376152523
0.17010998261629
0.17026175605041
0.17041531444196
0.17056622338796
0.17070959538912
0.17083963487512
0.17095010574704
0.17103344755213
0.17108188466557
0.17108551843313
0.17103511212155
0.17091748397552
0.17072270515602
0.17043242507665
0.17003817691113
0.16951252299681
0.16885327591793
0.16801351939145
0.16700542629144
0.16572223231046
0.1641683098317
0.17165265249732
0.17167949720659
0.17173413999915
0.17181716208968
0.17192789834674
0.17206497673291
0.17222672950479
0.17241127629999
0.17261637646845
0.17283937929481
0.17307709495613
0.17332587969475
0.17358142361533
0.17383893059054
0.17409268685901
0.1743364760622
0.17456272519625
0.17476353973088
0.17492883906013
0.17504903941281
0.17511051241568
0.17510264552199
0.17500620499518
0.17481168826355
0.17448995958451
0.1740380124657
0.17340549366941
0.17260457207333
0.17151704011387
0.17013958136229
0.17382658562882
0.17386117849632
0.17393166974161
0.17403894808019
0.17418250138669
0.17436103412846
0.17457296812011
0.17481655208678
0.17508971890421
0.17539000889551
0.17571445388874
0.17605961997139
0.17642143328231
0.1767952789461
0.17717565863861
0.17755646133786
0.17793027918161
0.17828917808448
0.1786231595689
0.1789223407885
0.1791730568324
0.17936394445509
0.17947550897058
0.17949682166413
0.17939771295812
0.17917339611588
0.1787706772011
0.17820280949287
0.17734253947124
0.17617715554059
0.17582378399519
0.17586593226263
0.17595199609723
0.17608319917007
0.17625922132476
0.17647885260584
0.17674061044371
0.17704288871534
0.17738382397796
0.1777611859261
0.17817228177033
0.17861394329439
0.17908242720439
0.17957339371932
0.18008172878054
0.18060153707732
0.18112580299012
0.18164659997519
0.18215434099126
0.18263873923186
0.18308670493666
0.18348566124113
0.18381716321426
0.18406755110714
0.18420821344615
0.18422894683892
0.18407635266453
0.18375662437947
0.18313984600639
0.18222057702735
0.17764969595783
0.17769883784661
0.17779962712088
0.17795382187904
0.17816135636137
0.17842111028155
0.17873173505128
0.17909176307161
0.17949953518137
0.179953107129
0.18045012723717
0.18098774124278
0.18156255483113
0.18217048857873
0.18280684846986
0.18346600439152
0.18414153601516
0.18482564234431
0.18550956324468
0.18618255786815
0.18683286948493
0.18744597682242
0.18800636985007
0.18849506408927
0.18889063615299
0.18917002683171
0.18929399653684
0.18923561370992
0.18887250083955
0.18815656242518
0.17931260394259
0.17936795992768
0.17948177714716
0.17965702262417
0.17989373300283
0.1801907442807
0.18054717435441
0.18096177835486
0.18143305680998
0.18195936541618
0.18253875937542
0.18316886028938
0.18384681945406
0.1845689843441
0.18533107469862
0.18612763385753
0.18695267667492
0.18779854626167
0.18865741298553
0.18951847656182
0.19037185156375
0.19120147771043
0.19199597081524
0.19272994914729
0.19339355470312
0.19394414387101
0.19437867829826
0.19461222653171
0.19460087532049
0.19400774651591
0.09475989132155
0.093603280650948
0.092418865426421
0.091208751785498
0.089974937957535
0.088718857294671
0.087441582685493
0.086144138960026
0.084827665694907
0.083493433109236
0.082142792288012
0.080777120722395
0.079397789913904
0.07800615820888
0.076603578135436
0.075191405912113
0.073771007267736
0.072343761082585
0.070911063398638
0.069474332271087
0.068035013982896
0.066594587795901
0.065154577247727
0.063716557024426
0.06228213086751
0.060852536145801
0.059428896649769
0.058012650917954
0.056605339370281
0.055208439317241
0.053823316429597
0.052451238888603
0.051093413112187
0.049750994245018
0.048425076738293
0.047116684076782
0.045826778931804
0.044556263954131
0.043305995067798
0.04207676192484
0.040869315119653
0.039684316606059
0.038522400068211
0.037384041459517
0.036269720712986
0.035179650198057
0.034114203948997
0.033073288607046
0.032057323149925
0.031065661676199
0.095285122892432
0.0941168442314
0.092916784092721
0.091690393269023
0.090440843432179
0.089169200865325
0.087875776726929
0.08656107763161
0.085226048908402
0.083871933049517
0.082500080922092
0.081111853787895
0.079708608684538
0.078291718529486
0.0768625902158
0.075422668992579
0.073973433772794
0.07251639051147
0.071053068664567
0.069585019302277
0.06811381015896
0.066641015811173
0.065168189288529
0.063696827449927
0.062228359003356
0.060764623359732
0.059307585815395
0.057858814282941
0.056419719648674
0.054991712810755
0.053576233759065
0.052174714399368
0.0507885248985
0.049418953436344
0.048067222201084
0.046734490845773
0.04542185238798
0.044130314075712
0.042860813432238
0.041614198939226
0.040391266495055
0.0391927021592
0.038019160406854
0.036871142696995
0.035749169221014
0.034653533882766
0.033584658303923
0.032542642724113
0.03152799563491
0.030541046645723
0.096267455340174
0.095062879880521
0.093818134920864
0.092545832731208
0.09125183942284
0.089936761739256
0.088599664715101
0.087240312180339
0.085859542521065
0.084458785068504
0.083039582640173
0.081603403524311
0.080151657939343
0.078685766860556
0.077207202065184
0.075717488712835
0.074218191200193
0.072710900740578
0.071197228910686
0.06967880628675
0.068157282535691
0.066634326564368
0.065111634260416
0.063590942878758
0.062074054195321
0.06056269834957
0.059058512431854
0.057563159517775
0.056078284067014
0.054605483484812
0.053146292653852
0.051702191205482
0.050274618959427
0.048864961425448
0.047474525786212
0.046104525830105
0.044756096183601
0.043430286112016
0.042128070510317
0.040850319909856
0.039597834675979
0.038371291443656
0.037171323957301
0.035998402514097
0.034853019584077
0.033735446222049
0.032646174546355
0.031585546564749
0.030555011980576
0.029557506149205
0.097652123741478
0.096388907237181
0.095073767304387
0.093730440219579
0.092368736577325
0.09098839352518
0.089586517014147
0.088161745598935
0.086714762131258
0.085247260658399
0.083761033731127
0.082257659820819
0.080738574555638
0.079205216460737
0.077659100165778
0.076101815454984
0.074534999773004
0.072960316561128
0.071379447435193
0.069794093160383
0.068205977753443
0.066616852087928
0.065028493090914
0.063442696083476
0.061861257040567
0.060285970606101
0.058718628360548
0.057160994929658
0.0556148025792
0.05408174335316
0.052563469200737
0.051061585216735
0.049577634146068
0.048113074272042
0.046669279891363
0.045247536176843
0.043849051655299
0.042474932449407
0.041126206650099
0.039803779514955
0.038508501602245
0.037241073504736
0.036002192343691
0.034792346944484
0.033612139194561
0.032461883283294
0.031342335872319
0.030254135018416
0.029199857041993
0.028185155036882
0.099405218151565
0.098064368570631
0.096656225462064
0.095219681454143
0.093769709239548
0.092304698161381
0.090819044755668
0.089309883945555
0.087777722275989
0.086224629723639
0.084652735340161
0.083063754904011
0.081459143926966
0.079840349610346
0.078208928102711
0.076566538150033
0.074914894955526
0.073255737762065
0.071590820173479
0.069921912510817
0.068250807652009
0.066579324474859
0.064909305742398
0.063242611027258
0.061581108213301
0.059926664893265
0.058281146080591
0.056646404113631
0.055024266295449
0.053416526578509
0.051824936090397
0.050251181400955
0.048696873672751
0.04716353962121
0.04565263081505
0.044165504573186
0.042703438317035
0.041267592453193
0.039859057821688
0.038478782061084
0.037127679470022
0.035806469914723
0.034515920169704
0.033256501379682
0.032028914753619
0.030833429227784
0.029671085112872
0.028542839171454
0.027453072966404
0.02641196736253
0.10150288398977
0.10006726127859
0.098545005305229
0.096994502715528
0.09543714167677
0.093869426661898
0.092282261721727
0.090670910533952
0.089035706688743
0.087379224031441
0.085704023797466
0.084011990911982
0.082304597617083
0.080583293767772
0.078849680621382
0.077105495084829
0.075352538239842
0.073592628377571
0.071827588135793
0.070059249292649
0.06828946123929
0.066520097086055
0.064753055966837
0.062990259683927
0.06123364745863
0.059485166052832
0.057746773380235
0.056020419458553
0.054308037685366
0.052611523111153
0.050932715089999
0.04927338763151
0.04763525468368
0.046019948364034
0.044429018615595
0.042863904767727
0.041325970319848
0.039816446132762
0.038336504741273
0.036887137225907
0.035469336845648
0.034083830660889
0.032731486748409
0.031412728005559
0.030128437185868
0.02887878485093
0.027665313468405
0.0264892082192
0.025357173359493
0.024283980427823
0.10392901071423
0.10238305014264
0.10072671888658
0.099042680976433
0.097360060927762
0.095672828472829
0.093967516511509
0.092237131912502
0.090481860202708
0.088704926654455
0.086909425539138
0.085097441522715
0.083270462687946
0.081429943655998
0.079577546367949
0.077715109253664
0.075844540614966
0.073967751934097
0.072086642117539
0.070203105999636
0.06831904893018
0.066436400024717
0.06455712108075
0.06268320945327
0.060816697257485
0.058959620532623
0.057114023325972
0.055281953190365
0.053465441557459
0.05166648098213
0.049887017644258
0.048128937191316
0.046394062134349
0.044684119671029
0.043000754259838
0.041345487173271
0.039719768933484
0.038124888488664
0.036562097484651
0.035032416164619
0.033536928633013
0.032076346227303
0.030651667512034
0.029263216965519
0.027912124094191
0.02659835336932
0.025324118236152
0.02409072792409
0.022908039216953
0.02179658946745
0.10667299788311
0.10500236067249
0.10319273296126
0.10135635465749
0.099531494938188
0.097708852332332
0.095869616985635
0.094004101772766
0.09211237063512
0.090198484410322
0.088266200282403
0.086317831865968
0.08435486490292
0.082378750854731
0.080391228189458
0.078394262847081
0.076389896564677
0.07438015873804
0.072367047712023
0.070352542943194
0.068338624976634
0.066327294218396
0.064320583840146
0.062320562888122
0.060329333082815
0.058349010407953
0.056381736612045
0.054429659481454
0.052494918789778
0.050579625956739
0.048685852402222
0.046815601784195
0.044970813501887
0.043153327216298
0.041364908297841
0.039607179093838
0.037881700948066
0.036189836659236
0.034532952387595
0.032912109686545
0.031328529171894
0.029782898393373
0.028276415581955
0.026809264517573
0.025382951598371
0.023997132755286
0.022654985813392
0.02135777416297
0.02011935726806
0.018966373244645
0.10972824667337
0.10791972626714
0.10593844309301
0.10393185937624
0.1019486824672
0.099975490190507
0.097987179406301
0.095970965661612
0.093926811955089
0.091859806938972
0.089774528316008
0.08767355711193
0.085558350087347
0.08343034331302
0.081291372013125
0.07914356079404
0.076989112067869
0.074830197491436
0.072668939200754
0.07050742376128
0.068347724757567
0.066191926289365
0.06404214118397
0.061900519407447
0.059769251005655
0.057650552076224
0.055546680314181
0.053459910218777
0.051392517799691
0.049346753941172
0.047324833853614
0.04532890329418
0.043361049189919
0.041423248395397
0.039517408975896
0.037645269186361
0.035808525459804
0.034008625884366
0.032247076338609
0.030524973436054
0.028843707193027
0.027203910763154
0.025607045670125
0.024053071830813
0.022544007641227
0.021079000444224
0.019662516486624
0.018295402595912
0.016996602678658
0.015799180228044
0.11309174613331
0.11113165125394
0.10896045945695
0.10676688058383
0.10461060820716
0.10247272549973
0.10032082142972
0.098138753886428
0.095926524198136
0.093690469720257
0.091436130481183
0.089166384756859
0.086882639835414
0.084586316464143
0.082279379667032
0.079964154491311
0.077643040588945
0.075318383641742
0.072992458476003
0.070667485420163
0.068345655798162
0.066029161065827
0.063720218750488
0.0614210879204
0.059134079453458
0.056861530835213
0.054605835814409
0.052369418415149
0.050154714023345
0.047964136209498
0.045800068982501
0.043664824545057
0.041560663086838
0.039489720414685
0.037454073899985
0.035455598375427
0.033496156715048
0.031577295957617
0.029700698615271
0.027867497203835
0.02607930738139
0.024336682328192
0.022641444724586
0.020993239348941
0.019394792153895
0.017844509076248
0.016348595427518
0.014907016488709
0.013545113485168
0.012302358541179
0.11676245096982
0.114637654734
0.11225792495422
0.10986075401315
0.10751756414852
0.10520190590289
0.10287261025403
0.10050994224328
0.098114271628799
0.095693495856023
0.093254227277037
0.090799629515936
0.088331042168141
0.085849885479003
0.083358291434314
0.080858830607388
0.078354144137685
0.075846793106739
0.073339245056866
0.070833892729363
0.068333082019875
0.065839146739909
0.063354442206509
0.060881366464917
0.058422375220121
0.055979957355906
0.053556675357438
0.051155131589903
0.048777950962035
0.046427743538651
0.044107100083996
0.041818535830486
0.039564522206035
0.037347389417249
0.035169427591472
0.033032681907832
0.030939228456018
0.028890735896136
0.026889118525563
0.024935548059641
0.023031940972922
0.02117873287253
0.019378231078633
0.017629642254246
0.015936644319718
0.01429659310003
0.012717981700901
0.011199234666873
0.0097736065662309
0.0084865037416277
0.12073566315234
0.11843627417033
0.11583140673815
0.11321483975138
0.11067140326554
0.10816559143605
0.10564580346215
0.10308826902661
0.1004941131039
0.097873181725239
0.095233262380518
0.092577773995468
0.089907973810003
0.087225306010651
0.084532114385823
0.081831265960919
0.079125694820398
0.0764182270259
0.073711571089597
0.07100834093144
0.068311085236767
0.065622325364758
0.06294459534389
0.060280469907493
0.05763258810914
0.055003627607463
0.052396359522493
0.049813608950485
0.047258236916421
0.044733095929952
0.042241030914311
0.039784808397119
0.037367162732415
0.034990666050876
0.032657873587491
0.030371041018281
0.02813251228845
0.025944104228261
0.023808026453361
0.021725492658656
0.019698807611078
0.017728246433432
0.015816747415574
0.013962935464546
0.012171732065689
0.010439062479078
0.0087763691937593
0.0071796662416625
0.0056919164411487
0.0043634625722941
0.12500709515651
0.12252493100404
0.11967909106886
0.11682899852323
0.11407378866854
0.11136655933096
0.10864378500086
0.10587760037823
0.1030703657994
0.1002342052271
0.097378146170387
0.094505830545311
0.091618427766666
0.088717440303896
0.085805477623901
0.082885765600749
0.079961592738486
0.077036106688866
0.074112312267259
0.071193100750644
0.068281280242369
0.06537961535168
0.062490873502415
0.059617860422454
0.056763453465352
0.05393057099782
0.051122248055951
0.048341587364229
0.045591741665602
0.042875863498729
0.040197111790943
0.037558562883136
0.034963273896565
0.032414115474975
0.029913970491231
0.027465357768579
0.025070956607379
0.022732772080746
0.02045338751342
0.018234075006173
0.016077629189057
0.013984137073108
0.011957323222824
0.0099951027491722
0.0081039437523013
0.0062779393512719
0.0045322072043281
0.0028592722192474
0.0013138447505397
-5.0548560098866e-05
0.12957366685057
0.12690270749276
0.12379697761599
0.1207003673373
0.11772440176048
0.11480646546082
0.11186936127559
0.10888147594254
0.10584717792845
0.10278124200369
0.099693947438072
0.096589098661643
0.093467778039428
0.090331599729929
0.087183512176025
0.084027173452364
0.080866295250861
0.077704412657285
0.074544892299852
0.071390970956474
0.068245786176537
0.0651124154147
0.061993928200666
0.058893429256872
0.055814104387816
0.052759177389648
0.049732014396984
0.0467360656932
0.043774848216787
0.0408518868805
0.037970726787912
0.035134826798765
0.032347642672253
0.029612418167145
0.026932441070905
0.024310562062954
0.021749876198621
0.019252634221104
0.016821881471415
0.014458981365172
0.012167320630628
0.0099467957753332
0.0078020422702715
0.0057302048238656
0.0037395030735586
0.0018219476693524
-3.0941269781963e-06
-0.0017475460366132
-0.0033429671320556
-0.0047350699630835
0.13442172513116
0.13155662260674
0.12818121127041
0.12482889030496
0.12162360738056
0.11848619808976
0.11532442066902
0.11210271714287
0.10882814216722
0.10551855660938
0.10218548481163
0.098832781717462
0.09546142908116
0.092073225501704
0.088671553001175
0.085260591470872
0.081844557103949
0.078427450026118
0.075013079126334
0.071605110180685
0.068207094185322
0.064822504705819
0.061454795690828
0.058107452589123
0.054784052998092
0.051488206181847
0.048223694343116
0.044994402135582
0.041804297680538
0.038657367326128
0.035557633098982
0.032509030259604
0.029515506015585
0.026580769662316
0.02370860394971
0.020902281828718
0.0181654058419
0.015500551165488
0.012911323479365
0.010399229237891
0.0079683616027197
0.0056184390064354
0.003355123404426
0.0011747783998395
-0.00091256919851316
-0.0029170097592522
-0.0048148913264897
-0.0066228643212396
-0.0082577284841815
-0.0096656322221213
0.13953835460078
0.13647688650546
0.13282271322681
0.12920852320375
0.12576901489332
0.12240520028802
0.11900931925991
0.11554272793954
0.11201577718969
0.10844960522744
0.10485693839889
0.10124159865372
0.097604465697193
0.093947602944227
0.090274933162823
0.08659125337902
0.0829013685191
0.079209832147033
0.075520993380189
0.071839052150349
0.068168079196779
0.064512047020898
0.060874892880989
0.05726057810258
0.053673180094233
0.050116781604277
0.046595679778795
0.043114301694222
0.039677176355276
0.036288865940324
0.032953979427599
0.029677042945969
0.026462600786127
0.023314946389549
0.020238461834856
0.01723696195539
0.01431465383674
0.011474548212833
0.0087209140994124
0.0060554736207912
0.0034831769859979
0.0010035373189127
-0.0013765112497862
-0.0036615502604739
-0.0058394624068614
-0.0079226430696232
-0.0098831933808334
-0.011742649407609
-0.013404018664851
-0.014813748676381
0.14490632914631
0.14164853492177
0.13770973687148
0.13383085335609
0.13015493793829
0.12655997179773
0.12292223468051
0.11920109370541
0.11541103981568
0.11157660181391
0.10771152230876
0.10381949203679
0.099901339911442
0.09595951879583
0.091998619575522
0.088024162301365
0.084041631602234
0.080056227334424
0.076072944393952
0.072096632530528
0.06813200365241
0.064183654460216
0.060256130366454
0.056353976412256
0.052481893697232
0.048644547519563
0.044846868949789
0.041093967951367
0.037391070602119
0.033743453332545
0.030156440553524
0.026635290706502
0.023185270070131
0.01981140877672
0.016518801717849
0.013311971928695
0.010195819271894
0.0071739608820059
0.0042513981699967
0.0014302158228693
-0.0012836521085759
-0.0038909085190776
-0.0063829682127934
-0.0087657929753938
-0.01102428749985
-0.013174213159309
-0.015182084978631
-0.017076210050446
-0.018746293677524
-0.020144815762817
0.15050351541245
0.14705277334053
0.14282721171268
0.13868423505678
0.13477268525187
0.13094414689557
0.127058686584
0.12307511288167
0.11901297677545
0.11490017295019
0.11075115457691
0.10656937813405
0.10235573099396
0.098113215491631
0.093847217651074
0.089564080702375
0.085270074760227
0.080971170846426
0.076673145571788
0.07238163429623
0.068102125128682
0.063839979935581
0.059600525951455
0.055389016276192
0.051210905244667
0.047071512124563
0.042976563946268
0.038932047987078
0.034944052408149
0.031018728086482
0.027162265930795
0.023380823468669
0.019680536253602
0.016067359734855
0.012547231973463
0.0091256036428898
0.0058081381527942
0.0025993290412917
-0.00049511705826264
-0.0034724047212721
-0.0063257178639559
-0.0090556418118353
-0.01165189334495
-0.014121915792692
-0.016446889810842
-0.018647267043408
-0.020682059245317
-0.022590046842349
-0.024245024646537
-0.025615653415481
0.15630220500029
0.15266565973617
0.14815629679461
0.14375425854746
0.13961090048435
0.13554844697802
0.13141130737997
0.12715949382051
0.12281840660928
0.11841902459564
0.11397605779614
0.10949265250516
0.10496997913552
0.10041183312881
0.095824531311872
0.09121531321874
0.086591317519891
0.081959404668079