/*--------------------------------*- C++ -*----------------------------------*\
| =========                 |                                                 |
| \\      /  F ield         | OpenFOAM: The Open Source CFD Toolbox           |
|  \\    /   O peration     | Version:  2112                                  |
|   \\  /    A nd           | Website:  www.openfoam.com                      |
|    \\/     M anipulation  |                                                 |
\*---------------------------------------------------------------------------*/
FoamFile
{
    version     2.0;
    format      ascii;
    arch        "LSB;label=32;scalar=64";
    class       volScalarField;
    location    "20";
    object      p;
}
// * * * * * * * * * * * * * * * * * * * * * * * * * * * * * * * * * * * * * //

dimensions      [0 2 -2 0 0 0 0];

internalField   nonuniform List<scalar> 
22000
(
0.003971517911014
0.0039499413946752
0.0039054378725258
0.0038368508675496
0.0037436990212521
0.0036260461469863
0.0034842165072214
0.0033185817302944
0.0031294642658568
0.0029171421872238
0.0026818918582696
0.0024240261823393
0.002143905499443
0.0018419389198848
0.0015185707352068
0.0011742859383147
0.00080959580190032
0.00042506036634998
2.1257477385919e-05
-0.00040116838746997
-0.00084157765094615
-0.001299228544866
-0.0017734382514896
-0.002263342267346
-0.0027682543458443
-0.0032871308990966
-0.0038193732220074
-0.0043636366922797
-0.004919629219706
-0.0054854749435138
0.0043759856878299
0.0043530227243584
0.0043066229782585
0.0042357481315636
0.0041398901448687
0.0040190415960573
0.0038734714799361
0.0037035246090367
0.0035095140087568
0.0032917139763094
0.0030503956550791
0.0027858652378232
0.0024984744423822
0.0021886256503594
0.0018567557521609
0.0015033472759164
0.0011289061098779
0.00073399533078542
0.00031918708142527
-0.00011486320750629
-0.00056752587357703
-0.0010380335916507
-0.0015257251518184
-0.0020296839810624
-0.0025492764329887
-0.0030833605658505
-0.0036314664368851
-0.0041920700904505
-0.0047652088837484
-0.0053486942094621
0.0051206366389569
0.0050964849257759
0.0050477800758783
0.0049735290066581
0.004873259037152
0.0047469684550793
0.0045949111012099
0.0044174108454919
0.0042147622390546
0.003987225494307
0.0037350587405924
0.0034585562450645
0.0031580559787697
0.0028339490974425
0.0024866587275825
0.0021166604518182
0.0017244475993877
0.001310585059891
0.00087563212793234
0.00042026157222757
-5.4915719279171e-05
-0.00054908619390279
-0.0010616272260186
-0.0015915212792977
-0.0021382261557452
-0.002700392579837
-0.0032777709815529
-0.0038684223062829
-0.0044729708036669
-0.0050884802193605
0.0061623752195235
0.0061368265628015
0.0060853110324857
0.0060067926653831
0.0059007901202429
0.0057673064725177
0.0056065936423215
0.0054189621690599
0.0052046853055526
0.0049640001472644
0.0046971407489511
0.0044043792473326
0.0040860295984363
0.00374246251051
0.0033740764469501
0.0029813311867464
0.0025646955487986
0.002124729970938
0.0016619681288447
0.001177100140552
0.00067070258341353
0.00014364727237703
-0.00040350645758075
-0.00096960513182145
-0.001554247172464
-0.0021557994994964
-0.0027743483826184
-0.0034073929803804
-0.0040564493956193
-0.0047175738209579
0.0074648238910332
0.0074376434818162
0.0073828356975643
0.0072993038825598
0.007186541647828
0.0070445454623567
0.0068735580746019
0.0066738699032728
0.0064457235145379
0.0061893206392201
0.0059048566003346
0.0055925660655974
0.0052527224790708
0.0048856600454163
0.0044917346541672
0.00407137410483
0.0036250033087415
0.0031531638640817
0.0026563427772593
0.0021352382674821
0.0015903679325846
0.0010226633449243
0.00043258604890966
-0.00017855108948557
-0.00081054518633182
-0.0014614136635722
-0.0021316934007338
-0.002818167924216
-0.003523509718155
-0.0042424513468527
0.0089964063394513
0.0089674407273437
0.0089090291622836
0.0088200072304765
0.0086998361573906
0.0085484960908479
0.0083662082150284
0.0081532286127621
0.0079097534119282
0.0076359318998607
0.0073319016929088
0.0069978397681864
0.0066339568199615
0.006240527921075
0.0058178414544171
0.0053662694936062
0.0048861658308287
0.004378030319514
0.0038422736359692
0.0032795833610654
0.0026903843322951
0.0020756596045775
0.0014357304515612
0.00077208231627888
8.4655405701945e-05
-0.00062416003404809
-0.0013554667114585
-0.0021051878336221
-0.0028774186875368
-0.0036652865784678
0.010728681583747
0.010697874934334
0.010635742741873
0.010541048131286
0.010413213636577
0.010252192786429
0.010058170690384
0.0098313516045966
0.0095718657150232
0.009279788883396
0.0089551779422031
0.0085981273088907
0.0082087573810032
0.0077872553405304
0.0073338103978095
0.00684870762583
0.0063321945197964
0.0057846974219443
0.0052065119381231
0.004598286083232
0.0039603083779408
0.0032935933069653
0.0025982687776661
0.0018759940095732
0.001126373087952
0.00035224601492903
-0.00044818106497966
-0.0012698486390751
-0.0021185551355658
-0.0029855842105752
0.012635077290249
0.012602470214539
0.012536694780794
0.01243643921087
0.012301081020144
0.012130535465659
0.011924935195956
0.011684413029906
0.011409011283156
0.011098708509955
0.010753454225865
0.010373231245202
0.0099580372842989
0.009507937222899
0.0090229831525722
0.0085033346329226
0.0079490898653027
0.0073605608991622
0.006737880165033
0.0060816162743585
0.0053918669762804
0.0046696455072016
0.0039148219475179
0.0031292140608055
0.0023120037305113
0.0014665048923465
0.00059009655607761
-0.00031108053602619
-0.0012448159497542
-0.0022003559220872
0.014690107503218
0.014655834828263
0.014586683105864
0.014481265598116
0.014338908522791
0.014159476142235
0.013943031034166
0.013689613715456
0.013399155284165
0.013071511228824
0.01270649476494
0.012303944877086
0.011863700411002
0.011385664914977
0.010869710163245
0.010315825342147
0.0097239093343142
0.0090941106180878
0.0084263413625331
0.0077210399601602
0.0069780482255308
0.006198331270148
0.0053814241795823
0.0045292719828919
0.0036405364686369
0.0027190075290294
0.0017610908143196
0.00077407859345107
-0.00025210729790539
-0.0013045408506755
0.016868971832738
0.016833257068397
0.016761175633836
0.016651267231977
0.016502800348426
0.016315575083308
0.016089566220902
0.015824701211245
0.015520776504393
0.015177498162006
0.014794512981155
0.014371482145663
0.013908047213825
0.013403908350534
0.0128587101555
0.012272221704292
0.011644086956838
0.0109742342218
0.01026229052347
0.0095085028849647
0.008712381797175
0.0078747837416078
0.006994820262815
0.0060745129133099
0.0051118929425423
0.0041112053658998
0.0030677259206031
0.0019899331414773
0.0008651537445425
-0.00029145592743813
0.019147427552223
0.01911057484261
0.019036173916025
0.018922692857926
0.018769335548229
0.018575825412601
0.018342033322197
0.018067754504081
0.017752628552584
0.017396186500872
0.016997879101442
0.016557155893777
0.016073422523964
0.015546132718063
0.014974655430019
0.014358487005039
0.013696957390931
0.012989712733061
0.01223602425148
0.011435877573385
0.010588368281627
0.0096941696687555
0.0087518700171543
0.0077634973342093
0.0067263305860251
0.0056450191890907
0.0045135443435732
0.0033415672102961
0.0021135069607187
0.00084671692920958
0.021501855203374
0.021464236830893
0.021388266739316
0.021272342837844
0.021115597830428
0.020917668070263
0.020678307212013
0.020397161688758
0.020073694344619
0.019707237853681
0.019297019727354
0.018842246292851
0.018342050683255
0.017795598380526
0.017201935004374
0.016560231087193
0.015869442570878
0.015128868376555
0.014337350204933
0.013494535360829
0.012599015795619
0.011651194881988
0.01064903267899
0.0095944705127222
0.0084839072386963
0.0073223079305211
0.0061021858365551
0.0048343194891715
0.0034999115014685
0.0021183925593926
0.023909450146291
0.023871489642055
0.023794808481982
0.023677736087587
0.023519330401631
0.023319134014176
0.023076772814029
0.02279173030247
0.022463275874731
0.02209052444721
0.02167245751432
0.021208010982972
0.020696013149269
0.020135303148199
0.019524559091886
0.018862574909486
0.018147874657024
0.017379344522913
0.016555323158447
0.015675037268368
0.014736485671703
0.013739700973802
0.012681912809056
0.011564856368399
0.010383943422648
0.0091443137116085
0.0078368882567998
0.0064733648122818
0.0050314946255044
0.003532157402535
0.026348482640526
0.026310640579604
0.026234174794831
0.026117357507398
0.025959175136734
0.02575907268667
0.025516539795766
0.025230886128624
0.024901175287948
0.02452629032789
0.024104949917622
0.023635798382778
0.023117333174722
0.022548035064748
0.021926176839023
0.021250130261636
0.020517935173537
0.019728001962858
0.018878097220685
0.017966940752172
0.016991854776226
0.015952379603096
0.014844932923655
0.013670855958412
0.012424545384932
0.011111002161759
0.009719708758395
0.008262693746014
0.0067149199362951
0.0050969844838394
0.028798543126007
0.028761298865757
0.028686013701391
0.02857091933759
0.028414937345785
0.028217413770483
0.027977696938079
0.027694916939545
0.027367926134446
0.026995368683035
0.026575690474584
0.026107230162295
0.025588136409538
0.025016507762364
0.024390182763034
0.023707073425891
0.022964692071877
0.022160916066998
0.021292879807103
0.020358709532342
0.019354978702323
0.018280598190162
0.017131113986497
0.015907239228687
0.014602362791805
0.013220936268054
0.011751135832794
0.010204734938362
0.0085543247433631
0.0068200677684712
0.031240786211427
0.031204622769256
0.031131492438132
0.031019605849031
0.030867829316432
0.030675411684393
0.030441559202724
0.030165222096271
0.029845042253527
0.029479425304073
0.029066543437372
0.028604424821599
0.02809086074127
0.027523553288395
0.026899888787583
0.026217292530544
0.025472717332007
0.024663461506766
0.023785975168026
0.022837720318769
0.021814438719428
0.020714320485501
0.019531896613295
0.018267179741618
0.016912275440683
0.015471129376894
0.013930128062495
0.012300960025456
0.010553056265438
0.0087060093990897
0.033658142885417
0.033623531911133
0.033553509755245
0.033446287256777
0.03330068721978
0.03311586633156
0.032890892378249
0.032624540952013
0.032315250992534
0.031961197398181
0.031560285934205
0.031110238877288
0.030608493107553
0.030052351472618
0.02943874241383
0.028764590044568
0.028026269608323
0.027220468217097
0.026342912511808
0.025390345951766
0.024357602784822
0.023242079879277
0.02203715099865
0.020742054647533
0.019347375043744
0.017856486416283
0.016253663590476
0.01455039865054
0.012712419398727
0.010758189667241
0.036035474893279
0.036002863047898
0.035936853425507
0.035835680620825
0.03569813816623
0.035523298209185
0.035310097614877
0.035057147758164
0.034762698151162
0.034424707777402
0.034040831749399
0.033608500545581
0.033124810278714
0.032586673849323
0.031990570576194
0.031332922260944
0.030609525131068
0.029816436659463
0.028948642013446
0.028002121728277
0.026970755946815
0.025851074702799
0.024635192882887
0.023321482137908
0.021898782658992
0.020369835239002
0.018716347403138
0.01694972830152
0.01503107522158
0.012977953250062
0.038359664574415
0.038329462960586
0.038268299069893
0.038174455649617
0.038046712661756
0.037884068698464
0.037685341849249
0.037448994713561
0.037173106178712
0.036855439842921
0.036493422805321
0.036084216490239
0.035624600428719
0.03511111874764
0.034539823991313
0.033906649867382
0.033206829889046
0.032435788658845
0.031587776202879
0.030657975120807
0.029639305064591
0.028527340756087
0.027312918269539
0.025993383863768
0.02455576216318
0.023001934794018
0.021310717420394
0.019493297431116
0.01750537798204
0.015363287594305
0.040619635189454
0.040592216533339
0.040536649136041
0.040451285618163
0.040334908627823
0.04018645749766
0.040004648130594
0.039787814135122
0.039533888122922
0.039240465910198
0.038904776449364
0.038523741493601
0.03809385599549
0.037611326662251
0.037071813771778
0.036470791984211
0.035802964569163
0.035063141433966
0.034244862793707
0.033342504191844
0.032348042627738
0.031256025438576
0.030056034932004
0.028744203870457
0.027305835682099
0.025741578575301
0.024027403643422
0.022173449436554
0.020129215570352
0.017908175638576
0.042806298706137
0.042781998801618
0.042732699173456
0.042656833786703
0.042553201290967
0.042420700037413
0.042257963721529
0.04206321713732
0.041834273009482
0.041568592937176
0.041263247629769
0.040914957728923
0.040519975732828
0.040074209711987
0.039572974710346
0.039011324371734
0.038383482097447
0.037683674267337
0.036904782796169
0.036040390747617
0.035081579031941
0.034021842443044
0.032849536362786
0.031559452535849
0.030135206824915
0.028576022238439
0.02685522390844
0.024981414451778
0.022897300229252
0.020609974199199
0.044912455962587
0.044891550934099
0.044849094152022
0.044783607810274
0.044693919641783
0.044578898904807
0.044437109646336
0.044266687013086
0.044065354970133
0.043830476292108
0.043559003281448
0.043247495229347
0.042892016017868
0.042488221287476
0.042031148496725
0.041515472066437
0.040935017585676
0.040283448771227
0.039553096239078
0.038736732458285
0.037824691234543
0.03680933635306
0.035677981718464
0.034423911246583
0.033029093779587
0.031491064920585
0.029780512204149
0.027905459840673
0.025800332887423
0.02346686218977
0.046932749252621
0.046915344240293
0.046880073668504
0.046825592633614
0.046750792430116
0.046654508666554
0.046535217940705
0.046390968663586
0.046219430665157
0.046017916283988
0.045783300831405
0.045512013482552
0.045199975540378
0.044842622299018
0.044434782141606
0.043970778627993
0.043444157782282
0.042848007076504
0.042174303167852
0.041414863168935
0.040559651446966
0.039599467400871
0.038521382042445
0.037316166117583
0.03596569605254
0.034463447256407
0.032779027810575
0.030916314747694
0.028806853842521
0.0264493460074
0.048863868298728
0.04884974265508
0.048821464006639
0.04877806205872
0.048718520157886
0.048641592944305
0.04854565573971
0.048428679227731
0.048288327001547
0.048121870991026
0.047926134497471
0.047697462547217
0.047431693888782
0.047124081245896
0.046769293992767
0.046361298410255
0.045893405928989
0.045358038941418
0.044746959051354
0.04405079918471
0.043259651403099
0.042361928143175
0.041345841316813
0.040197228229275
0.038902154011997
0.03744353487345
0.035800655332274
0.03395050011901
0.031839198888234
0.029428411606852
0.050705207422953
0.050694260399711
0.050672298481966
0.05063961425373
0.050595211601228
0.050537622673021
0.05046509974539
0.050375705564188
0.050267204788536
0.050136790803465
0.049981229751253
0.049796803476659
0.049579332439338
0.049324030506526
0.04902554378486
0.048677579438048
0.048273300613907
0.04780451364275
0.047262863926344
0.046637691353181
0.045919362546333
0.045093641087338
0.044150723656721
0.043070293760502
0.041845701627054
0.04044454204508
0.038870555012925
0.037057810998537
0.034997047151716
0.03244705816567
-0.0060259815554087
-0.0065388626220978
-0.0070582340120371
-0.0075829890708672
-0.0081121578519467
-0.008644890237067
-0.0091804103851214
-0.0097179667599845
-0.010256791476353
-0.01079608797459
-0.01133504060531
-0.011872829005479
-0.01240863694078
-0.012941655597591
-0.0134710856596
-0.013996139947515
-0.014516044994971
-0.015030042460922
-0.01553739106595
-0.016037368567813
-0.016529273174764
-0.017012422267056
-0.017486148526217
-0.017949791509574
-0.018402704718829
-0.018844402854871
-0.019274557817844
-0.019692699235312
-0.020098307040808
-0.020490909414889
-0.020870111959685
-0.021235582598295
-0.021587035364409
-0.021924219824044
-0.022246923867093
-0.022554968716848
-0.022848217189421
-0.023126561002734
-0.023389939111526
-0.023638307959585
-0.023871683799006
-0.024090074474483
-0.024293579136181
-0.024482234831675
-0.024656245736991
-0.024815637714029
-0.024960781251846
-0.025091622514037
-0.025208892543591
-0.025312386286166
-0.0059030704234179
-0.0064258720636089
-0.0069559634372014
-0.0074915151821816
-0.0080312658947202
-0.0085743980241498
-0.0091203183645601
-0.0096684538141509
-0.010218129315844
-0.010768564863318
-0.011318929654774
-0.011868385684159
-0.012416102981064
-0.012961258872315
-0.01350303477178
-0.014040615853945
-0.014573192827857
-0.015099964244439
-0.015620139924701
-0.016132945454692
-0.01663762783073
-0.017133463538143
-0.017619770810498
-0.018095929768312
-0.018561387013055
-0.01901548591222
-0.01945745788027
-0.019886754139535
-0.020302946783908
-0.020705635967187
-0.021094432299542
-0.021468971516334
-0.021828932590873
-0.022174037064404
-0.022504056092414
-0.022818798156576
-0.023118126188864
-0.02340193034638
-0.023670166601498
-0.02392279479039
-0.024159867948684
-0.024381393990552
-0.024587538438052
-0.024778314340793
-0.024954038700793
-0.025114638335614
-0.02526066216958
-0.025391722587066
-0.02550871189552
-0.025610152509372
-0.0056708601932655
-0.006218331107031
-0.0067750714366849
-0.0073375171442106
-0.0079035442420257
-0.0084722295163344
-0.0090432471577136
-0.0096163075822124
-0.010190853934581
-0.010766079611004
-0.011341076561609
-0.01191494082023
-0.012486800104347
-0.013055802083207
-0.013621100109312
-0.01418184823271
-0.014737202305457
-0.015286323495804
-0.01582838410305
-0.016362574312942
-0.016888107833782
-0.017404224284665
-0.017910187931242
-0.018405279904835
-0.01888878882236
-0.019360055578645
-0.019818511642194
-0.020263612560712
-0.020694857209889
-0.021111789958269
-0.021514000346529
-0.021901118856234
-0.022272826811038
-0.022628849422064
-0.022968971657237
-0.023293015420299
-0.023600872358872
-0.023892451561079
-0.024167754749755
-0.02442675869681
-0.024669587036531
-0.024896248207199
-0.025107022001518
-0.025301872876783
-0.025481315042634
-0.025645095479906
-0.025794105351773
-0.025927380779528
-0.026046215548661
-0.026146885566731
-0.0053413415622561
-0.0059272064894834
-0.0065250324349082
-0.0071284069905092
-0.0077338958174221
-0.0083404954842863
-0.0089483492828404
-0.0095576239555225
-0.010167948774232
-0.010778484169468
-0.011388222272855
-0.011996185381064
-0.012601468536623
-0.013203208317576
-0.013800549827891
-0.014392633758753
-0.014978596404727
-0.015557574027497
-0.01612871044417
-0.016691165313526
-0.017244120083335
-0.017786780746791
-0.018318380868554
-0.018838187730864
-0.019345512621806
-0.019839707784679
-0.020320154183438
-0.020786283895521
-0.021237579803129
-0.021673571935999
-0.022093843610041
-0.022498025446959
-0.022885808037395
-0.023256926060641
-0.023611184367672
-0.023948418823644
-0.024268553549719
-0.024571512849825
-0.024857350226271
-0.025126051247537
-0.025377823619355
-0.025612657987092
-0.025830977303778
-0.026032655680672
-0.026218464386201
-0.026387866897901
-0.026542201361536
-0.026679613897827
-0.026801841649074
-0.026901684910634
-0.0049193620666858
-0.0055557714898752
-0.0062076916507401
-0.0068646828062537
-0.0075215566012003
-0.0081772966156243
-0.0088327481608922
-0.0094887125467822
-0.010145062281603
-0.01080090398378
-0.011455095409911
-0.012106568829202
-0.012754388570298
-0.013397689178694
-0.014035615796417
-0.014667300984946
-0.015291864197924
-0.015908418620641
-0.016516082084382
-0.017113988579899
-0.017701296306024
-0.018277190842532
-0.018840887837721
-0.01939163607333
-0.019928721416142
-0.020451470909701
-0.020959255389121
-0.02145149118817
-0.021927647972766
-0.022387246363542
-0.022829867488612
-0.023255142337061
-0.023662770762644
-0.024052495126241
-0.02442414090557
-0.024777556476033
-0.025112702624838
-0.025429517292471
-0.025728114615883
-0.026008484591188
-0.026270935590504
-0.026515428704893
-0.026742560988344
-0.026952085071233
-0.027145087780424
-0.027320667496665
-0.027480716355267
-0.027622259899735
-0.027747600075895
-0.027845171275673
-0.0044060353498183
-0.0051044046511604
-0.0058229493928396
-0.0065458302387153
-0.0072656015075887
-0.0079813205821027
-0.0086947940916293
-0.009407640752969
-0.010120020073048
-0.010830946664106
-0.011539097047408
-0.012243290204304
-0.012942557505811
-0.01363603724202
-0.014322879109355
-0.015002208478165
-0.015673126922708
-0.016334723023829
-0.016986087630553
-0.017626328749981
-0.01825458067108
-0.018870005953924
-0.019471796815924
-0.020059177498618
-0.020631410005114
-0.021187803397779
-0.021727715396001
-0.022250549378292
-0.022755765179716
-0.023242875691284
-0.023711461325887
-0.024161153506576
-0.024591662241799
-0.025002737531241
-0.025394229129474
-0.025765998817027
-0.026118050531438
-0.026450336586624
-0.026763042606585
-0.027056161594636
-0.027330120424587
-0.027584843926576
-0.027821134346698
-0.028038602396222
-0.028238706398917
-0.028420124379101
-0.028585399942922
-0.028730265623517
-0.028857672672601
-0.02895093011864
-0.003800099966515
-0.0045715066277587
-0.0053691036450284
-0.0061700207215056
-0.0069639919882539
-0.0077502846773795
-0.0085319795581814
-0.0093117135258068
-0.010089968481671
-0.010865614348545
-0.011637090563195
-0.012403077984951
-0.013162574528059
-0.013914728785166
-0.014658698756018
-0.015393601876363
-0.016118518356372
-0.016832508252405
-0.017534631946871
-0.018223968279348
-0.018899624617679
-0.019560737602038
-0.020206473871803
-0.020836032711348
-0.021448653574563
-0.022043625200676
-0.022620286408852
-0.023178024096691
-0.023716286559635
-0.024234576789466
-0.024732472205106
-0.02520960116836
-0.025665682437624
-0.026100470620894
-0.026513839541108
-0.026905661624235
-0.027275986587207
-0.027624777751343
-0.027952298254857
-0.028258539688806
-0.028544059559602
-0.028808738999422
-0.029053607576435
-0.029278119770671
-0.029484145435822
-0.029669905953521
-0.029838659453098
-0.029984723864827
-0.030111712761146
-0.030197199102961
-0.0030978280083884
-0.0039531914186308
-0.0048423978671153
-0.0057335858680552
-0.0066130335515819
-0.0074804200370961
-0.0083404830201597
-0.0091971018374904
-0.010051105233366
-0.010901147705945
-0.011745366047894
-0.012582276470995
-0.013410844093261
-0.014230235309527
-0.015039618940665
-0.015838100608025
-0.016624732383781
-0.017398538664367
-0.018158543061606
-0.018903789976534
-0.019633355033915
-0.020346344102494
-0.021041893248834
-0.02171917118803
-0.022377388295378
-0.023015805970845
-0.023633737795216
-0.024230547282373
-0.024805664634986
-0.025358575440227
-0.025888847799518
-0.026396099765836
-0.026880052832144
-0.027340458684301
-0.027777211050685
-0.028190185354087
-0.02857947431185
-0.028945045051843
-0.029287238864955
-0.029606039394152
-0.029902139524862
-0.030175371161884
-0.030427001582737
-0.03065632388809
-0.030865635997066
-0.031052694956383
-0.031221491713154
-0.031364896340112
-0.031487143127228
-0.03155977350251
-0.0022933959456838
-0.0032436257449862
-0.0042373294093924
-0.0052312942700084
-0.0062076230875931
-0.0071666940689784
-0.0081153692786118
-0.0090590183453016
-0.0099988243848549
-0.01093313318077
-0.011859701762596
-0.012776854629123
-0.013683527891047
-0.014578913642689
-0.01546219172486
-0.016332448744071
-0.0171886980972
-0.018029918441932
-0.01885508806063
-0.019663209112835
-0.02045331782466
-0.02122448116083
-0.021975795857681
-0.022706390609753
-0.023415436937155
-0.024102159157395
-0.024765836001863
-0.025405796604464
-0.026021442224228
-0.026612229856087
-0.027177707722828
-0.02771747146094
-0.028231235087406
-0.028718734685106
-0.029179873327061
-0.029614516748261
-0.030022791960336
-0.030404658050826
-0.030760526930644
-0.031090364656123
-0.031394992357651
-0.031674188898806
-0.031929449609595
-0.03215991545959
-0.032368293490131
-0.032551911075447
-0.032715445433706
-0.032850404811309
-0.032961492331123
-0.033014274263297
-0.0013792884568524
-0.0024353928945261
-0.0035469608186471
-0.0046566000528901
-0.0057414367163444
-0.0068029444052898
-0.0078506736082122
-0.008891752347468
-0.0099277005138178
-0.010956435180748
-0.011975246654887
-0.01298224246473
-0.013976336982989
-0.01495675719365
-0.015922691986645
-0.016873197506562
-0.017807234340444
-0.018723722298799
-0.019621583089147
-0.020499766517293
-0.021357259079941
-0.022193077553159
-0.023006267370817
-0.02379590458031
-0.0245611090863
-0.02530105457316
-0.026014970917695
-0.026702138169687
-0.027361913870896
-0.027993709622203
-0.02859703756816
-0.029171453123848
-0.029716645440081
-0.03023231604752
-0.030718360160892
-0.031174614366563
-0.031601221235832
-0.031998113751649
-0.032365754084489
-0.032704077367783
-0.033014007419276
-0.033295268758443
-0.033549545487215
-0.033775851539532
-0.033977231654299
-0.034150671148205
-0.034301391502671
-0.034419772095516
-0.034510688796323
-0.03453427332759
-0.00034673493769935
-0.0015198771666635
-0.0027632433173867
-0.0040018968830953
-0.0052071134585135
-0.0063820029950605
-0.0075394803805958
-0.0086887112721424
-0.0098314965833138
-0.010965172962165
-0.012086467858175
-0.01319325144503
-0.014284429888393
-0.015359274434622
-0.016416977104225
-0.01745654767825
-0.018476875575637
-0.019476805822621
-0.020455190434996
-0.021410914368103
-0.022342901214496
-0.023250103157012
-0.024131498965233
-0.024986095831433
-0.025812945417269
-0.026611153169613
-0.027379882091372
-0.028118343350828
-0.028825830383377
-0.029501687717043
-0.030145368990238
-0.030756364722556
-0.031334314474515
-0.031878858931736
-0.032389857369115
-0.032867090795887
-0.03331068590288
-0.033720524786758
-0.034097081256507
-0.034440243329656
-0.03475098519197
-0.035028980844119
-0.035276020028907
-0.035491040776707
-0.03567727951727
-0.035831536116444
-0.035959304053405
-0.036050257415233
-0.036108953826279
-0.036091240180546
0.00081380844543931
-0.00048766360288447
-0.0018773371142233
-0.0032587862216378
-0.0045964965209992
-0.0058959168710516
-0.0071741165469482
-0.0084425791927516
-0.009703283438964
-0.010952800868901
-0.012187196265356
-0.01340409103997
-0.014602402010848
-0.015781453192154
-0.01694042872839
-0.018078269899244
-0.019193772613449
-0.0202856885745
-0.021352784475443
-0.02239386558285
-0.023407776589607
-0.024393387338669
-0.025349591120609
-0.026275306387577
-0.027169495825789
-0.028031174367061
-0.028859414984007
-0.029653335813227
-0.030412140751886
-0.031135079264455
-0.031821516446265
-0.032470846922885
-0.033082625745888
-0.033656399628978
-0.034191951665456
-0.034688973147529
-0.035147524442619
-0.035567407293025
-0.035949042430911
-0.036292254482464
-0.036597976608816
-0.036865847557111
-0.037097619069088
-0.03729224046837
-0.037452890349083
-0.037576431930789
-0.037668181366405
-0.037717768281998
-0.037728678330708
-0.037654381965475
0.0021120368601915
0.00067080347265262
-0.00088012345667153
-0.0024183911497216
-0.0039008196670782
-0.0053360954322583
-0.0067462984333503
-0.0081454596157258
-0.0095355672891685
-0.010912216170451
-0.012270712272607
-0.013608429906215
-0.014924323540055
-0.016217776026086
-0.017487944912258
-0.018733674620928
-0.019953640986612
-0.021146481625615
-0.022310860818696
-0.023445486473277
-0.024549104638967
-0.025620481272691
-0.026658401612535
-0.027661672119275
-0.028629142089053
-0.029559709720562
-0.03045232924598
-0.031305995104161
-0.032119789118537
-0.032892833875048
-0.033624367859484
-0.034313651900608
-0.034960110309745
-0.03556315661261
-0.036122439685141
-0.036637522164808
-0.037108322636408
-0.037534531330101
-0.037916412651261
-0.0382537182013
-0.038547191594692
-0.038796474936272
-0.0390030513086
-0.039166027764164
-0.039288129788672
-0.039366655112354
-0.039406064200466
-0.039396876729296
-0.039340408222376
-0.039190618243957
0.0035577582150416
0.0019647994746479
0.00023712599688393
-0.0014720390736545
-0.0031112506205032
-0.0046937053763574
-0.0062474290154933
-0.0077891096326748
-0.0093204702192133
-0.010835891016598
-0.012329841488437
-0.013799468522304
-0.015243793155058
-0.016662255518868
-0.018053958217699
-0.019417612527928
-0.020751744295656
-0.02205485508897
-0.023325487602431
-0.024562232134934
-0.025763712872686
-0.026928566111689
-0.028055441979139
-0.029143007397137
-0.03018996955384
-0.031195080586875
-0.032157143154744
-0.033074993738676
-0.033947551296782
-0.034773771567004
-0.035552717525928
-0.036283475168016
-0.036965279046122
-0.037597365771038
-0.038179172063193
-0.038710089456223
-0.039189787863937
-0.039617819087761
-0.039994136417831
-0.040318425505521
-0.040591011071215
-0.040811614428357
-0.040981093649798
-0.041098954487482
-0.041166848758638
-0.04118308143299
-0.041150270918931
-0.041061001533278
-0.040912954096337
-0.040664689940288
0.0051602780719413
0.0034035874525943
0.0014831623271199
-0.00041115135702361
-0.0022191033966069
-0.0039600068971303
-0.0056689271845895
-0.0073652439286098
-0.0090500175288298
-0.010716134502251
-0.01235717563951
-0.013970112817206
-0.015554071128087
-0.017108533654847
-0.018632503707327
-0.020124515517809
-0.021582912286077
-0.023006035787065
-0.024392285773406
-0.025740110681995
-0.027047985006713
-0.028314386135994
-0.029537798499934
-0.0307167175503
-0.031849673629471
-0.032935237784091
-0.033972022350586
-0.034958670506098
-0.035893893533418
-0.036776434585499
-0.037605118167749
-0.038378807668363
-0.039096477399576
-0.039757138110522
-0.040359916163067
-0.040903984818714
-0.041388629702549
-0.041813237078829
-0.042177241705339
-0.042480288329009
-0.042721963476814
-0.042902182050291
-0.043020668753669
-0.043077699403774
-0.043072865163037
-0.043006488892371
-0.042877857685463
-0.04268280790097
-0.042413956214277
-0.042039993506223
0.0069264599525501
0.0049948480099273
0.0028660119844443
0.00077257559116322
-0.0012158755041243
-0.003126452714844
-0.0050023579408703
-0.0068656357640003
-0.008716212043112
-0.010545167129005
-0.012345162348245
-0.014113079519561
-0.015848189715355
-0.017549987224497
-0.019217314832502
-0.020848477736567
-0.022441603940643
-0.023994852749433
-0.02550645630712
-0.026974692338489
-0.028397852442916
-0.029774221483781
-0.031102084646819
-0.032379732349716
-0.033605480605769
-0.034777676823076
-0.035894694445974
-0.036954943684682
-0.037956879273061
-0.038898980150445
-0.039779763432584
-0.040597815025656
-0.041351766554574
-0.042040340220539
-0.042662245856185
-0.043216373870504
-0.043701479816414
-0.04411673336227
-0.044460818227924
-0.044733344518051
-0.044932785874782
-0.045059335404446
-0.045110979643624
-0.045089126280549
-0.044989708490447
-0.044816949151576
-0.044563966531553
-0.044231463736714
-0.043809490724578
-0.0432800769901
0.008861704363848
0.0067445939520884
0.0043921963503678