/*--------------------------------*- C++ -*----------------------------------*\
| =========                 |                                                 |
| \\      /  F ield         | OpenFOAM: The Open Source CFD Toolbox           |
|  \\    /   O peration     | Version:  2112                                  |
|   \\  /    A nd           | Website:  www.openfoam.com                      |
|    \\/     M anipulation  |                                                 |
\*---------------------------------------------------------------------------*/
FoamFile
{
    version     2.0;
    format      ascii;
    arch        "LSB;label=32;scalar=64";
    class       surfaceScalarField;
    location    "20";
    object      phi;
}
// * * * * * * * * * * * * * * * * * * * * * * * * * * * * * * * * * * * * * //

dimensions      [0 3 -1 0 0 0 0];

oriented        oriented;

internalField   nonuniform List<scalar> 
43645
(
0.39512370327858
-4.8301810866589e-06
0.39513822374973
-1.4520431045122e-05
0.39516248577429
-2.4261981180746e-05
0.39519649110602
-3.4005286905269e-05
0.39524022207549
-4.3730924457789e-05
0.39529364431941
-5.3422199369675e-05
0.39535670436919
-6.3060006093556e-05
0.39542933088481
-7.2626472907647e-05
0.39551143433018
-8.2103403781309e-05
0.39560291303431
-9.1478663629376e-05
0.39570365257238
-0.00010073949873616
0.39581353595346
-0.00010988334282382
0.39593243419444
-0.00011889820386636
0.39606022045919
-0.00012778622867436
0.39619674275731
-0.00013652226311004
0.39634185693042
-0.00014511413902894
0.39649536993878
-0.00015351297521509
0.39665712301149
-0.00016175304034909
0.39682686793607
-0.00016974489299601
0.39700445931029
-0.00017759134323891
0.39718957042987
-0.00018511108918716
0.397382127407
-0.0001925569471249
0.39758165638565
-0.00019952894905741
0.39778826851142
-0.00020661209637585
0.39800117216339
-0.00021290362278925
0.39822091469504
-0.00021974250249691
0.39844600129952
-0.00022508657538096
0.3986779900043
-0.00023198867594235
0.39891381517332
-0.00023582514069486
-0.0002434911197699
0.39915730632197
0.37294709517155
-9.3705508291176e-06
0.37296084070553
-2.826589921108e-05
0.37298396241328
-4.7383621908835e-05
0.37301646197142
-6.6504778106869e-05
0.37305831587141
-8.5584758386374e-05
0.37310948958717
-0.00010459585026099
0.37316993480385
-0.00012350515931909
0.37323958746868
-0.00014227907571818
0.37331836565714
-0.00016088153176092
0.37340617539052
-0.00017928833799
0.37350291053036
-0.00019747458111672
0.3736084627197
-0.0002154354761627
0.37372271171204
-0.00023314714172256
0.37384553853274
-0.00025061299625699
0.3739767987583
-0.00026778243695488
0.37411635484192
-0.00028467017214327
0.37426402147837
-0.00030117956238779
0.37441964692035
-0.00031737843402405
0.37458299296399
-0.00033309088934022
0.37475392204429
-0.00034852037696041
0.3749321208059
-0.00036330980495671
0.37511752224142
-0.00037795833727205
0.37530967045457
-0.00039167711732502
0.37550867869077
-0.00040562028790328
0.37571378223231
-0.00041800711991618
0.37592551969378
-0.0004314799195477
0.37614244568279
-0.00044201252003535
0.37636608894894
-0.00045563189816402
0.37659348838333
-0.00046322453255541
-0.00047842979788416
0.37682842710527
0.35201541597285
-1.3888934166325e-05
0.35202902651778
-4.1876375667469e-05
0.35205181549036
-7.0172525787522e-05
0.35208377734326
-9.846656308681e-05
0.352124882437
-0.00012668978558877
0.35217509221901
-0.00015480556727637
0.35223435802675
-0.00018277090380835
0.35230261863791
-0.00021053962529141
0.352379796933
-0.00023805976706404
0.3524658055271
-0.00026529687399638
0.35256054634386
-0.00029221534159233
0.35266392022338
-0.0003188093010475
0.3527758154195
-0.00034504228493872
0.35289612057198
-0.00037091809734044
0.35302469650063
-0.00039635831578208
0.35316141119191
-0.0004213848148755
0.35330608308415
-0.00044585140741187
0.35345856787569
-0.00046986317933241
0.35361863168203
-0.00049315465046785
0.35378614910304
-0.00051603775342089
0.35396080953876
-0.00053797019682429
0.35414256463194
-0.00055971338693273
0.35433095263208
-0.00058006507433432
0.35452611643675
-0.00060078404944959
0.35472726225305
-0.00061915289320505
0.354934982961
-0.00063920058422257
0.35514774961867
-0.00065477913429988
0.35536720433256
-0.00067508656879112
0.35559017634677
-0.00068619650479698
-0.00070893539696981
0.35582068198956
0.33225854327955
-1.8388196115374e-05
0.33227209160665
-5.5424641468053e-05
0.33229475446504
-9.2835322604663e-05
0.33232650367083
-0.00013021570791649
0.3323672921705
-0.00016747822549292
0.33241707400452
-0.0002045873428503
0.33247580043607
-0.00024149727843327
0.33254341375876
-0.00027815289251149
0.33261984189565
-0.00031448785010568
0.33270500442311
-0.00035045934909535
0.33279881217402
-0.00038602304177795
0.33290117663992
-0.00042117371767808
0.33301199585527
-0.00045586145261159
0.33313116720287
-0.00049008939859672
0.33325855686617
-0.00052374793417358
0.33339403872203
-0.00055686662695619
0.33353743419918
-0.0005892468419819
0.33368860733436
-0.00062103627280407
0.33384732741713
-0.00065187469245976
0.33401348376323
-0.00068219405930804
0.33418676586157
-0.00071125225560131
0.33436714927394
-0.00074009676000866
0.33455415909717
-0.00076707485863502
0.33474797882643
-0.00079460373978421
0.33494776799727
-0.00081894202524846
0.33515420002228
-0.00084563257019138
0.33536562581768
-0.00086620489059514
0.33558387076868
-0.00089333148085262
0.33580548491161
-0.00090781061004385
-0.0009383708353347
0.33603492038935
0.31361056007133
-2.2890835684392e-05
0.31362411482836
-6.8979343612578e-05
0.31364677153172
-0.00011549197105507
0.313678482279
-0.00016192640101651
0.31371918156611
-0.00020817745966238
0.31376881489051
-0.00025422061564934
0.31382733384082
-0.00030001617867347
0.31389468581482
-0.00034550481790083
0.31397080581733
-0.00039060780561528
0.31405562269535
-0.00043527618159766
0.31414905878878
-0.00047945909130296
0.31425103921241
-0.00052315409882252
0.31436147474346
-0.00056629694269955
0.31448027445089
-0.00060888906633953
0.31460731231147
-0.00065078575641983
0.31474247069567
-0.00069202497384898
0.31488557602014
-0.00073235213024631
0.31503650369162
-0.00077196390881056
0.31519502801391
-0.00081039898008068
0.3153610572854
-0.00084822329654955
0.3155342821331
-0.0008844770695459
0.31571470847801
-0.00092052307127011
0.31590184647558
-0.00095421282276186
0.31609593096913
-0.00098868819971175
0.31629606562791
-0.0010190766503413
0.31650302505741
-0.0010525919655941
0.31671501280457
-0.0010781926033808
0.31693407980594
-0.0011123984477897
0.3171564232441
-0.0011301540147002
-0.0011689670386554
0.31738701948282
0.29600921380584
-2.7402733819274e-05
0.29602279347336
-8.2558960650397e-05
0.29604547384722
-0.00013817229447462
0.29607718786359
-0.00019364036762482
0.29611785211709
-0.00024884166451543
0.29616740459385
-0.00030377304492491
0.2962257989078
-0.00035841044650278
0.29629298986152
-0.00041269572675392
0.2963689223128
-0.00046654021347562
0.29645353760482
-0.00051989143148149
0.2965467732444
-0.00057269469021592
0.29664857198508
-0.00062495280008395
0.29675886145626
-0.00067658637585881
0.29687756652685
-0.00072759410004451
0.29700457289395
-0.00077779208788301
0.29713977550242
-0.00082722754761459
0.29728300972144
-0.0008755863155916
0.29743416697019
-0.00092312112457545
0.29759303080038
-0.00096926277806442
0.29775953411468
-0.0010147265790582
0.29793337259625
-0.001058315519834
0.29811458937834
-0.0011017398222325
0.2983026815048
-0.0011423049183535
0.29849794412997
-0.001183950793926
0.29869942111068
-0.0012205536001429
0.29890800237354
-0.0012611731972489
0.2991217265089
-0.0012919167074221
0.29934289867932
-0.00133357058695
0.29956731613916
-0.0013545714442445
-0.0014021935156841
0.2998005426483
0.27939574524653
-3.1913418276753e-05
0.2794093198186
-9.6133488302803e-05
0.27943197428321
-0.00016082671481526
0.27946362310305
-0.00022528914386225
0.27950416591422
-0.00028938443314919
0.27955353484209
-0.00035314193132424
0.27961168781674
-0.00041656338094289
0.27967858979784
-0.00047959766879877
0.27975419866758
-0.00054214904548577
0.27983847188798
-0.00060416461532944
0.27993136625738
-0.00066558902439675
0.28003284667998
-0.00072643318859925
0.28014286243011
-0.00078660209318661
0.28026135908763
-0.00084609072575842
0.28038823914713
-0.00090467211670838
0.28052341538316
-0.00096240375379153
0.28066673768664
-0.0010189085901337
0.28081811943021
-0.0010745028397803
0.280977359605
-0.0011285029251679
0.2811444224335
-0.001181789380186
0.28131901501419
-0.0012329080735689
0.28150122510638
-0.0012839498875254
0.28169054204094
-0.0013316218262079
0.28188732965794
-0.001380738384037
0.28209057403883
-0.0014237979541347
0.28230129175347
-0.0014718908846156
0.28251735073572
-0.0015079756622219
0.28274133121151
-0.0015575510352409
0.2829686070376
-0.0015818472436112
-0.0016389639334189
0.28320537748394
0.26371469588635
-3.6399816691676e-05
0.26372819735951
-0.00010963492144238
0.2637507140388
-0.00018334335424146
0.26378214326094
-0.00025671832668133
0.26382236910824
-0.00032961024201455
0.26387131972433
-0.00040209250984665
0.26392895975865
-0.00047420337872901
0.26399526716686
-0.00054590504141889
0.26407021614707
-0.0006170979912233
0.26415378401377
-0.00068773244851779
0.26424595111352
-0.00075775609178334
0.2643467091429
-0.00082719118656454
0.2644560341144
-0.00089592703438724
0.26457389763717
-0.0009639542190774
0.264700224827
-0.0010309992781076
0.26483495231005
-0.0010971312091174
0.26497795126046
-0.0011619075136719
0.26512916387101
-0.001225715423988
0.26528841237448
-0.0012877514029606
0.26545569989912
-0.0013490768794631
0.26563075357541
-0.0014079617249698
0.26581371373342
-0.0014669100207613
0.26600407079786
-0.0015219788661628
0.26620226538254
-0.0015789329441728
0.26640723382906
-0.0016287663762405
0.26662012808917
-0.001684785120107
0.2668386502337
-0.0017264977821545
0.2670656674949
-0.0017845682719482
0.26729612594906
-0.0018123056741063
-0.0018797218064129
0.26753688384739
0.24891372268855
-4.0829782223057e-05
0.24892705505547
-0.00012296725354822
0.24894927632547
-0.00020556458956742
0.24898026858094
-0.00028771054795361
0.24901990215795
-0.00036924378558179
0.24906810317425
-0.00045029349340833
0.24912484526075
-0.00053094543338361
0.24919012199548
-0.00061118174506319
0.24926392698382
-0.00069090294942825
0.24934626089394
-0.00077006632929783
0.24943713163855
-0.0008486268080236
0.24953656208272
-0.0009266216031428
0.24964455995365
-0.0010039248786626
0.24976112817827
-0.0010805224177593
0.24988622060884
-0.0011560916836031
0.25001980404053
-0.0012307146163181
0.25016177840984
-0.0013038818592321
0.25031212203847
-0.0013760590292821
0.25047068935566
-0.0014463186973971
0.25063753037837
-0.0015159178796783
0.25081240273198
-0.0015828340564773
0.25099550739284
-0.0016500146596118
0.25118634796054
-0.0017128194120965
0.25138544907557
-0.0017780340373606
0.25159171101799
-0.0018350282969456
0.25180642643496
-0.0018995005151747
0.25202714696673
-0.0019472182920597
0.25225702888869
-0.0020144501721504
0.25249060708977
-0.00204588385417
-0.0021245125312221
0.2527353978372
0.2349434230438
-4.5165236707789e-05
0.2349564716336
-0.00013601581241772
0.23497821004793
-0.00022730297307418
0.23500850711698
-0.00031800758652203
0.2350472213753
-0.00040795801401633
0.23509427876589
-0.00049735085462546
0.23514966384044
-0.00058633047925904
0.23521338797247
-0.00067490584897508
0.23528546676657
-0.00076298171617086
0.23536592717865
-0.00085052671460235
0.23545480810528
-0.00093750770866751
0.23555216729866
-0.0010239807711394
0.23565804862579
-0.0011098061811892
0.23577249111043
-0.001194964878366
0.2358954832255
-0.0012790837753646
0.23602702799728
-0.0013622593652808
0.23616706175729
-0.0014439155970676
0.23631560613611
-0.0015246033863019
0.2364725573206
-0.0016032698606239
0.2366380200397
-0.0016813805777631
0.23681179426893
-0.0017566082651106
0.23699414921249
-0.0018323695827008
0.23718461648394
-0.0019032866633881
0.23738381053107
-0.0019772280643547
0.23759061499329
-0.002041832739242
0.23780646446429
-0.0021153499662118
0.23802878683487
-0.0021695406428511
0.23826101946381
-0.0022466827815379
0.23849732505088
-0.0022821894224631
-0.0023730387526713
0.23874585129253
0.22175716979933
-4.9365220462868e-05
0.22176980998893
-0.00014865597499159
0.22179086315631
-0.00024835611348944
0.22182018666442
-0.0003473310679219
0.22185762910772
-0.00044540043105136
0.22190311782789
-0.00054283954891174
0.22195664973504
-0.00063986236105124
0.22201825548742
-0.00073651157639793
0.22208797449888
-0.00083270070325997
0.22216586206061
-0.00092841425238559
0.22225199052085
-0.001023636145577
0.22234645519773
-0.001118445425131
0.22244933954245
-0.001212690503643
0.22256072247474
-0.00130634778881
0.22268063223501
-0.0013989935143851
0.22280911335229
-0.0014907404616828
0.22294614577981
-0.0015809480042518
0.22309180091101
-0.0016702584974559
0.22324602627517
-0.001757495205198
0.22340898831264
-0.0018443425958602
0.22358054210596
-0.0019281620394263
0.2237610315037
-0.002012858961538
0.22395003392326
-0.0020922890643538
0.22414825692243
-0.0021754510449531
0.22435459329954
-0.0022481690980092
0.22457061477049
-0.0023313714188153
0.22479366419221
-0.0023925900464347
0.22502743932289
-0.0024804578943655
0.22526579371893
-0.0025205438013747
-0.0026247046691145
0.22551745965382
0.20931095562838
-5.3388876160801e-05
0.20932306138933
-0.00016076171190739
0.209343226145
-0.00026852084513859
0.20937129662833
-0.00037540152735601
0.2094071132064
-0.0004812169855703
0.20945060593759
-0.00058633225678043
0.2095017849073
-0.00069104130780809
0.20956070066381
-0.00079542731022052
0.20962741723226
-0.00089941724943511
0.20970201916629
-0.0010030161644138
0.20978461352605
-0.0011062304838118
0.2098753345459
-0.0012091664237424
0.20997430740999
-0.0013116633469916
0.21008165340952
-0.0014136937678872
0.21019744457299
-0.0015147846578892
0.21032177097035
-0.0016150668393593
0.21045466251419
-0.0017138395288698
0.21059624552437
-0.0018118414886477
0.21074652794033
-0.0019077776025946
0.21090574328372
-0.0020035579208649
0.21107381499092
-0.0020962337286261
0.21125116517042
-0.0021902091231603
0.21143743824098
-0.00227856211735
0.21163343225119
-0.0023714450376908
0.21183808660387
-0.0024528234335025
0.21205309324225
-0.0025463780400693
0.21227577130514
-0.0026152680924795
0.21251003685998
-0.002714723432706
0.21274951456751
-0.0027600214931414
-0.0028786343396335
0.213003444255
0.19756324549864
-5.7197824664078e-05
0.19757469871821
-0.00017221491005998
0.19759378349188
-0.00028760559733506
0.1976203369079
-0.00040195492196068
0.19765419278268
-0.00051507283917448
0.19769528471838
-0.00062742417141819
0.19774363606
-0.00073939262863628
0.19779931698204
-0.00085110821160853
0.19786241591626
-0.00096251616329868
0.19793304642294
-0.0010736466508878
0.19801135020583
-0.0011845342468402
0.19809750027795
-0.0012953164761697
0.19819166420622
-0.0014058272559472
0.1982940065386
-0.0015160360811302
0.19840464566888
-0.0016254237694223
0.19852371962541
-0.0017341407773355
0.19865131330488
-0.0018414331901622
0.19878761132169
-0.0019481394874601
0.19893269015254
-0.0020528564158212
0.19908685343297
-0.0021577211838343
0.19925010661869
-0.0022594868972335
0.19942294902668
-0.0023630515141703
0.19960511848647
-0.0024607315604656
0.19979748654235
-0.0025638130770185
0.19999909681654
-0.0026544336914205
0.20021170489866
-0.0027589861060224
0.2004327329914
-0.0028362961693562
0.20066619630928
-0.0029481867350704
0.20090574928462
-0.0029995744536852
-0.003133715777949
0.2011608307389
0.18647483686631
-6.0757302740429e-05
0.18648553479604
-0.00018291282030747
0.18650336946523
-0.00030544024693088
0.18652817034402
-0.00042675578114014
0.18655976635462
-0.00054666883032031
0.18659809508684
-0.00066575288424654
0.18664319259135
-0.00078449011391938
0.18669514758651
-0.00090306318760866
0.18675407175683
-0.0010214403146666
0.18682010622177
-0.0011396810969573
0.18689342587258
-0.0012578538790089
0.18697424078245
-0.0013761313674973
0.18706275993769
-0.0014943463929008
0.18715919025874
-0.0016124663840072
0.18726369740253
-0.0017299308953333
0.1873764678335
-0.0018469111905479
0.1874976447731
-0.0019626101123284
0.18762747235439
-0.0020779670514647
0.18776610214938
-0.0021914861938618
0.18791390861543
-0.0023055276331037
0.18807099219295
-0.0024165704583003
0.18823792467953
-0.0025299839844727
0.18841457004941
-0.0026373769143933
0.18860183574919
-0.0027510787610013
0.18879898057101
-0.0028515784977558
0.18900763321906
-0.0029676387387375
0.18922568917332
-0.0030543521085862
0.18945662165368
-0.0031791192007695
0.1896951593613
-0.0032381121473155
-0.0033886924704217
0.1899501360689
0.17600872995882
-6.4038484782652e-05
0.17601858731337
-0.00019277015683217
0.17603502945819
-0.00032188237356624
0.17605788024716
-0.00044960655188241
0.17608696536676
-0.00057575393181304
0.17612222649231
-0.00070101399170905
0.17616371114727
-0.000825974750939
0.17621152452732
-0.00095087654975856
0.17626579927147
-0.0010757150410867
0.17632670147535
-0.0012005832831454
0.17639443659287
-0.0013255889790241
0.17646924857905
-0.0014509433362008
0.17655138528548
-0.0015764830820545
0.17664109329706
-0.0017021743783588
0.17673858469135
-0.0018274222725979
0.17684409272074
-0.0019524192030025
0.17695782033774
-0.0020763377126447
0.17708007004937
-0.0022002167465441
0.17721107272218
-0.0023224888504306
0.17735127266848
-0.0024457275633373
0.17750087359271
-0.0025661713667994
0.17766051940955
-0.0026896297857835
0.17783021331404
-0.0028070708037088
0.17801090511442
-0.0029317705464101
0.17820207475268
-0.0030427481213727
0.17840528369321
-0.0031708476647997
0.17861884888698
-0.003267917288201
0.17884588172754
-0.0034061520275297
0.17908196738919
-0.0034741977957316
-0.0036418506210726
0.17933512555423
0.16613000268481
-6.7019173806863e-05
0.16613895368914
-0.00020172114413057
0.16615389303745
-0.00033682170468374
0.16617464068903
-0.00047035418624383
0.16620102044229
-0.00060213366797475
0.16623297775947
-0.00073297129186077
0.16627056986136
-0.00086356683599281
0.16631391573699
-0.00099422240863823
0.16636316588666
-0.0011249651742054
0.16641850766072
-0.0012559250407357
0.16648017307275
-0.0013872543747546
0.16654843549886
-0.0015192057460481
0.16662357778573
-0.0016516253528134
0.1667058818017
-0.0017844783782363
0.16679560351188
-0.0019171439668348
0.16689301910761
-0.0020498347828467
0.1669983908835
-0.0021817094728581
0.16711207557342
-0.0023139014209021
0.16723438583058
-0.0024447990923174
0.167365831198
-0.002577172915696
0.16750672457303
-0.0027070647271197
0.16765778157054
-0.0028406867688626
0.16781914484873
-0.0029684340678554
0.16799183676687
-0.0031044624507802
0.16817550314571
-0.0032264144868051
0.16837178245972
-0.0033671269656365
0.16857916985409
-0.0034753046696804
0.16880084370717
-0.0036278258680349
0.16903264547105
-0.0037059995474703
-0.0038917045836924
0.16928249944703
0.1568056937375
-6.9684206178372e-05
0.15681369348063
-0.00020972087088172
0.1568270541371
-0.00035018234467254
0.15684559329968
-0.00048889333242842
0.15686913400347
-0.00062567435561606
0.15689762485871
-0.00076146213116738
0.15693113056431
-0.0008970725259936
0.15696978070197
-0.0010328725309522
0.15701373987533
-0.0011689243325528
0.15706321231128
-0.0013053974618756
0.15711845167195
-0.0014424937208615
0.15717975509627
-0.0015805091559004
0.15724743506925
-0.0017193053114791
0.15732180318615
-0.0018588464808384
0.1574031551256
-0.0019984958921047
0.15749180430464
-0.0021384839477328
0.15758807005979
-0.0022779752140367
0.15769235623844
-0.0024181875856893
0.1578050584838
-0.0025575013241015
0.15792674160061
-0.0026988560191802
0.15805783415068
-0.0028381572642615
0.15819911495766
-0.0029819675632598
0.15835086861169
-0.0031201877097605
0.15851420966573
-0.0032678034930758
0.15868891250177
-0.0034011173115076
0.15887677393947
-0.0035549883922832
0.1590763837951
-0.0036749145145226
0.15929110618243
-0.0038425482448135
0.15951692946549
-0.0039318228201758
-0.0041365101942646
0.15976173508772
0.14800469223662
-7.2025497930297e-05
0.14801171686566
-0.00021674548372741
0.14802345761662
-0.00036192307949224
0.14803973106603
-0.00050516676603774
0.14806036035817
-0.00064630363250554
0.14808529639747
-0.00078639815573616
0.14811460892176
-0.00092638503619739
0.14814843468557
-0.0010666982812442
0.14818694818495
-0.0012074378190203
0.14823036562874
-0.001348814893182
0.14827895658549
-0.0014910846655451
0.14833303584034
-0.0016345883989022
0.14839293894377
-0.0017792084032778
0.14845900087728
-0.001924908402755
0.1485315508237
-0.0020710458270593
0.14861093338737
-0.0022178664999497
0.14869751915876
-0.0023645609741256
0.14879175185915
-0.0025124202748906
0.14889410642167
-0.0026598558757272
0.14900519205076
-0.002809941637679
0.149125556913
-0.0029585221163536
0.14925602332951
-0.003112433970073
0.14939703685199
-0.0032612012231009
0.14954978267305
-0.0034205493055003
0.1497141782405
-0.003565512870819
0.1498922147993
-0.0037330249433024
0.15008249792611
-0.0038651976338084
0.150288762475
-0.0040488127862798
0.15050685471352
-0.0041499150511476
-0.0043743064000675
0.1507446509283
0.13969763336239
-7.4041584881449e-05
0.13970367909585
-0.00022279120006907
0.13971379194521
-0.00037203591193372
0.13972778874991
-0.00051916355459743
0.13974549331812
-0.00066400818562928
0.13976685764984
-0.00080776247345447
0.13979195398745
-0.0009514813609699
0.13982092290379
-0.0010956671857985
0.13985394455365
-0.0012404594581009
0.13989124207783
-0.0013861124073741
0.13993309470935
-0.001532937287737
0.13997982835541
-0.0016813220360389
0.14003179416995
-0.0018311742092234
0.14008934414115
-0.001982458365473
0.14015283268318
-0.0021345343607268
0.14022263003287
-0.0022876638413079
0.14029914785923
-0.0024410787922989
0.14038286560736
-0.0025961380149579
0.1404743238759
-0.002751314136524
0.14057417395887
-0.0029097917132532
0.14068307150485
-0.0030674196554793
0.14080186972148
-0.0032312321804287
0.14093119567915
-0.0033905271751826
0.14107223065794
-0.0035615842793653
0.1412251593322
-0.0037184415408064
0.14139201394696
-0.003899879554276
0.14157157515786
-0.0040447588411912
0.14176792576694
-0.0042451633918051
0.14197660227139
-0.0043585915515321
-0.0046033397371732
0.14220563561417
0.13185679954661
-7.573638350188e-05
0.13186187984053
-0.00022787147315944
0.13187038672648
-0.00038054277713351
0.13188213828902
-0.00053091509767668
0.13189695901989
-0.00067882889881829
0.13191480069143
-0.00082560412917003
0.13193573561106
-0.00097241626664869
0.13195990463123
-0.0011198361937021
0.13198748928022
-0.0012680440963545
0.13201871452476
-0.0014173376423771
0.13205386332755
-0.0015680860819585
0.13209326600813
-0.0017207247086736
0.13213728206039
-0.0018751902539941
0.13218627346573
-0.0020314497635308
0.13224061156663
-0.0021888724545119
0.13230068551394
-0.0023477377815752
0.13236693637797
-0.0025073296494347
0.1324398746368
-0.0026690762670867
0.13252008764369
-0.0028315271370769
0.13260827220491
-0.0029979762686175
0.13270515928827
-0.0031643067336313
0.13281165262148
-0.003337725509221
0.13292852301758
-0.0035073975677524
0.13305693858794
-0.003689999847113
0.13319741703965
-0.0038589199907958
0.13335178109351
-0.0040542436071321
0.13351948611602
-0.0042124638630957
0.13370438875178
-0.004430066026873
0.13390234287547
-0.0045565456736793
-0.0048220171527113
0.1341210202944
0.12445602788119
-7.7117900109495e-05
0.12446016936472
-0.00023201292675539
0.12446711738988
-0.0003874907716516
0.12447669122201
-0.00054048890067771
0.1244887153566
-0.00069085300677181
0.12450314033842
-0.00084002908704513
0.1245200368857
-0.00098931279261804
0.12453954293167
-0.0011393422207103
0.12456183706628
-0.0012903382140533
0.12458714019905
-0.0014426407598438
0.12461573300522
-0.0015966788740821
0.12464794292623
-0.0017529346164825
0.12468413202503
-0.0019113793401939
0.12472466445049
-0.0020719821767306
0.12476992297699
-0.0022341309690068
0.1248203054889
-0.0023981202816439
0.1248762753541
-0.0025632995030497
0.12493836097846
-0.0027311618801871
0.12500718495856
-0.0029003511064466
0.12508348035142
-0.003074271651438
0.12516802426203
-0.0032488506351317
0.12526179652488
-0.0034314977640721
0.12536562127639
-0.0036112223125153
0.12548079631176
-0.0038051748770687
0.12560792456019
-0.0039860482351059
0.12574887269858
-0.0041951917425551
0.12590348135924
-0.0043670725215406
0.12607524973497
-0.0046018344004836
0.12626166633265
-0.0047429622683402
-0.0050297186703699
0.12646936785552
0.1174706257761
-7.8199858660975e-05
0.11747386668396
-0.00023525378784876
0.11747932455161
-0.00039294859069968
0.11748681759166
-0.00054798189358948
0.11749617023643
-0.00070020560731689
0.11750733116273
-0.00085118997242102
0.11752036739738
-0.001002348989591
0.11753541162955
-0.0011543864180507
0.11755263731185
-0.0013075638639485
0.11757225667308
-0.0014622600905585
0.11759454187835
-0.0016189640502987
0.11761980868701
-0.0017782013971187
0.11764841624283
-0.0019399868687348
0.11768072177767
-0.0021042876847934
0.11771711768357
-0.0022705268485468
0.11775799627488
-0.0024389988469728
0.11780384523088
-0.0026091484335196
0.11785518346275
-0.0027825000871349
0.11791268120852
-0.0029578488281262
0.11797705959338
-0.0031386500133302
0.11804916982914
-0.003320960849332
0.11813000218151
-0.0035123300965822
0.1182204433749
-0.0037016634878695
0.11832195783217
-0.0039066893182822
0.1184350310825
-0.004099121471304
0.11856217621712
-0.0043223368649273
0.11870224544495
-0.0045071417385875
0.11886047454
-0.0047600634854636
0.11903205572526
-0.0049145434431194
-0.0052285439098669
0.11923088097805
0.110877294443
-7.900934412159e-05
0.11087969392388
-0.00023765319868472
0.11088375563422
-0.00039701022827346
0.11088929136583
-0.0005535175538807
0.11089612941413
-0.00070704358748675
0.11090421641846
-0.00085927691227106
0.11091361260035
-0.0010117451105126
0.11092444441609
-0.0011652181758627
0.11093687952385
-0.0013199989162964
0.11095111951916
-0.001476500032408
0.11096742331394
-0.0016352677931222
0.11098608843729
-0.0017968664696229
0.11100746633504
-0.0019613647165192
0.11103189983075
-0.002128721131194
0.11105978790381
-0.0022984148729589
0.11109150220366
-0.0024707130987889
0.11112755994495
-0.0026452061275939
0.1111684340696
-0.0028233741655558
0.11121487815186
-0.0030042928655554
0.11126750577358
-0.0031912775919724
0.1113273662156
-0.0033808212505137
0.11139522031021
-0.0035801841529028
0.11147232953359
-0.0037787726757469
0.11155978749774
-0.0039941472497511
0.1116586268643
-0.004197960808083
0.11177130741672
-0.0044350173904905
0.11189660853988
-0.0046324428375591
0.11204116033603
-0.0049046152592882
0.11219411328805
-0.0050674963734039
-0.0054208888036331
0.11238645820682
0.10465404224862
-7.9585541751325e-05
0.10465569340442
-0.00023930425963419
0.10465847107383
-0.00039978780106371
0.10466219682063
-0.00055724320587377
0.10466670458345
-0.00071155125877441
0.10467192769777
-0.00086449993865218
0.10467791789812
-0.0010177352262843
0.10468480996559
-0.0011721101615635
0.10469277596875
-0.0013279648399627
0.10470199928735
-0.0014857232732493
0.1047127127955
-0.0016459812248863
0.10472518791055
-0.0018093415093589
0.1047397655569
-0.0019759422884607
0.10475677714773
-0.0021457326484561
0.10477662212883
-0.0023182597813349
0.10479964242934
-0.002493733327557
0.10482638151608
-0.0026719451437678
0.10485724439659
-0.0028542369771127
0.10489308580087
-0.0030401342029539
0.10493431494768
-0.0032325066747183
0.10498229160334
-0.0034287978454404
0.10503723452305
-0.0036351270157898
0.10510133325891
-0.0038428713587816
0.10517417110017
-0.0040669850422663
0.10525916787774
-0.0042829575410325
0.10535517316481
-0.0045310226373303
0.10546674910693
-0.0047440187436053
0.10559541538374
-0.0050332815033782
0.10573910692477
-0.0052111878836301
-0.0055971516041532
0.10591536976054
0.098780047280535
-7.9914452233278e-05
0.098781047609061
-0.0002403044768503
0.098782605454156
-0.00040134553413563
0.09878468428963
-0.0005593219313055
0.098787106885725
-0.00071397374777424
0.098789774490509
-0.00086716743936799
0.098792721832471
-0.0010206824668487
0.098796059207932
-0.0011754474377148
0.098799947614896
-0.0013318531491905
0.098804554846416
-0.0014903304081568
0.098810084689439
-0.0016515109721832
0.098816777012542
-0.0018160337374324
0.098824953154673
-0.0019841183362761
0.098834941640957
-0.002155721041123
0.098847153056397
-0.0023304711040576
0.098861921473703
-0.002508501653205
0.098879792324658
-0.0026898159046123
0.098901120053712
-0.002875564618141
0.098926825871263
-0.0030658399355285
0.09895721163048
-0.0032628923529405
0.098993925403188
-0.0034655115421916
0.099036662751421
-0.0036778642936223
0.099088606653877
-0.0038948151966641
0.099147567644492
-0.004125945974017
0.099220388710036
-0.0043557785535535
0.099299585170068
-0.0046102190505303
0.099399916146907
-0.0048443496796046
0.099503818497283
-0.0051371838173485
0.099640439700441
-0.0053478090518746
0.099830444647617
-0.0057871565120294
0.39450207826465
0.0046552280863507
0.39000581580407
0.0044962624889734
0.38567306440483
0.0043327514274404
0.38150824952291
0.0041648149103045
0.37751565006998
0.0039925994815845
0.37369939910242
0.0038162509966748
0.37006347856465
0.0036359205672896
0.36661171148371
0.0034517671109867
0.36334775572491
0.003263955789249
0.36027509961997
0.0030726561359104
0.35739705870962
0.0028780409416613
0.35471677250318
0.0026802862382332
0.35223720114286
0.002479571392388
0.34996112186541
0.0022760793099134
0.34789112544919
0.0020699964488735
0.34602961262809
0.001861512854074
0.34437879066194
0.001650821999211
0.34294067005987
0.001438120635387
0.34171706133516
0.0012236087580238
0.34070957180831
0.0010074895603522
0.33991960172798
0.00078997011376223
0.33934833902524
0.00057126273633158
0.33899674794972
0.00035159110901562
0.3388655191486
0.00013122883476273
0.33895528648695
-8.9767304801072e-05
0.33926650777971
-0.00031122125905792
0.33979918853108
-0.00053268071775802
0.34055320894218
-0.00075402037731194
0.3415282337695
-0.00097502479363685
0.34272370245613
-0.0011954686527847
0.3441388277041
-0.0014151252142832
0.3457725983521