/*--------------------------------*- C++ -*----------------------------------*\
| =========                 |                                                 |
| \\      /  F ield         | OpenFOAM: The Open Source CFD Toolbox           |
|  \\    /   O peration     | Version:  2112                                  |
|   \\  /    A nd           | Website:  www.openfoam.com                      |
|    \\/     M anipulation  |                                                 |
\*---------------------------------------------------------------------------*/
FoamFile
{
    version     2.0;
    format      ascii;
    arch        "LSB;label=32;scalar=64";
    class       volVectorField;
    location    "20";
    object      U;
}
// * * * * * * * * * * * * * * * * * * * * * * * * * * * * * * * * * * * * * //

dimensions      [0 1 -1 0 0 0 0];

internalField   nonuniform List<vector> 
22000
(
(1.0000009867169 -2.5212889941119e-05 0)
(1.0000260637089 -7.5892187377978e-05 0)
(1.0000744924557 -0.000126670094188 0)
(1.0001474355926 -0.00017738909574303 0)
(1.0002453405016 -0.00022797067122236 0)
(1.0003681791691 -0.00027834739213912 0)
(1.0005156768336 -0.00032842980208188 0)
(1.0006875132459 -0.00037812840641813 0)
(1.0008834048906 -0.00042734926692016 0)
(1.0011031089629 -0.00047602952537454 0)
(1.001346372746 -0.00052410264647095 0)
(1.0016129326305 -0.00057155596744205 0)
(1.0019024761666 -0.0006183275457692 0)
(1.0022146945286 -0.00066443102755031 0)
(1.0025492126434 -0.00070973607337219 0)
(1.0029056851828 -0.00075428705369654 0)
(1.0032836418411 -0.00079782747673595 0)
(1.0036826985872 -0.00084054105041071 0)
(1.0041022508046 -0.00088195459790321 0)
(1.0045419256768 -0.00092261474745773 0)
(1.0050009449591 -0.00096155874525666 0)
(1.0054790568018 -0.0010001313596847 0)
(1.0059752048066 -0.0010362053455145 0)
(1.0064894451178 -0.0010728982467282 0)
(1.0070201935558 -0.0011054010243227 0)
(1.0075681573735 -0.0011408618134814 0)
(1.0081307294211 -0.0011683804555539 0)
(1.0087099549328 -0.0012042814100921 0)
(1.0093012919145 -0.0012238351820414 0)
(1.0099095146113 -0.0012641795837301 0)
(1.0000004532749 -7.4332393451058e-05 0)
(1.0000256714931 -0.00022389902871627 0)
(1.0000746969082 -0.00037393411241346 0)
(1.0001485901579 -0.00052389435575701 0)
(1.0002478140117 -0.00067349947468238 0)
(1.0003723988363 -0.00082253731057044 0)
(1.0005221105425 -0.00097074552963581 0)
(1.0006966517826 -0.0011178607555077 0)
(1.0008957370209 -0.0012636034938462 0)
(1.0011191301371 -0.0014077845852767 0)
(1.001366567099 -0.0015502071636773 0)
(1.0016378064109 -0.0016908313282733 0)
(1.0019325148943 -0.0018294732614396 0)
(1.0022504264947 -0.0019661637282308 0)
(1.0025911089385 -0.002100515848165 0)
(1.0029542982797 -0.0022326453300841 0)
(1.0033393925703 -0.0023618029858943 0)
(1.0037461851932 -0.0024885082395227 0)
(1.004173791257 -0.002611394867793 0)
(1.0046222341834 -0.0027320284526269 0)
(1.0050901351504 -0.0028476442271102 0)
(1.0055781161862 -0.0029620941519691 0)
(1.006083820395 -0.0030692833844398 0)
(1.0066092114554 -0.0031781236398977 0)
(1.0071498865176 -0.0032748675684231 0)
(1.0077106875017 -0.0033799092077624 0)
(1.0082829511786 -0.0034621738470163 0)
(1.0088776040941 -0.003568148269675 0)
(1.0094772421584 -0.0036275145788361 0)
(1.0101056262768 -0.0037457914146475 0)
(1.0000004935265 -0.00012184494505572 0)
(1.0000269369462 -0.00036715805635004 0)
(1.0000782360691 -0.00061342467320141 0)
(1.0001553790995 -0.0008596138758456 0)
(1.0002587480506 -0.0011052163369343 0)
(1.0003883356083 -0.0013499022871661 0)
(1.0005438993802 -0.001593271046342 0)
(1.0007251558502 -0.0018349061335288 0)
(1.0009318179703 -0.0020743512945824 0)
(1.0011636638083 -0.0023112999065374 0)
(1.0014204149586 -0.0025454340529812 0)
(1.0017018625654 -0.0027766937883982 0)
(1.0020076418533 -0.003004767375829 0)
(1.0023375491422 -0.0032296934089648 0)
(1.0026910630439 -0.0034508096543484 0)
(1.0030680409344 -0.0036683025384606 0)
(1.0034676754575 -0.0038809181891512 0)
(1.0038900353544 -0.0040895374830804 0)
(1.004333792815 -0.004291882403121 0)
(1.0047996047588 -0.0044905937888963 0)
(1.0052851204059 -0.0046810421349803 0)
(1.0057923950031 -0.0048697011721094 0)
(1.0063169053377 -0.0050463361005711 0)
(1.0068638281297 -0.0052259133352763 0)
(1.007423921404 -0.0053853230759557 0)
(1.0080091953153 -0.0055588363055962 0)
(1.0086002537921 -0.005694195156541 0)
(1.0092239102645 -0.0058695878776604 0)
(1.0098391975577 -0.0059667046439244 0)
(1.0105051121941 -0.006163157953857 0)
(1.0000005276354 -0.00016893699575107 0)
(1.0000283972576 -0.0005090498528481 0)
(1.0000824684589 -0.00085051025573105 0)
(1.000163727249 -0.0011917010199988 0)
(1.0002724885289 -0.0015319090148385 0)
(1.0004086891289 -0.0018707688264211 0)
(1.0005720538868 -0.0022078097123983 0)
(1.0007623026154 -0.0025424986849683 0)
(1.0009791418865 -0.0028742189974161 0)
(1.0012223725203 -0.0032025649994782 0)
(1.0014917012598 -0.003527115902834 0)
(1.001786969277 -0.0038478077763409 0)
(1.0021077714635 -0.0041641929531213 0)
(1.0024539943378 -0.0044763082208962 0)
(1.0028249955325 -0.0047831854075737 0)
(1.0032208057782 -0.0050850870610858 0)
(1.003640334669 -0.0053802298302986 0)
(1.0040840417926 -0.0056699060253806 0)
(1.0045499834893 -0.0059508814114571 0)
(1.0050397124246 -0.0062269772904445 0)
(1.0055495178863 -0.0064915700360571 0)
(1.0060834773607 -0.0067539690933091 0)
(1.0066340230442 -0.0069994701532116 0)
(1.00721086748 -0.0072495734388306 0)
(1.0077979502828 -0.0074710294726278 0)
(1.0084174117942 -0.007713112799436 0)
(1.0090347155215 -0.0079005869963205 0)
(1.0096991553293 -0.0081460086639688 0)
(1.0103365065442 -0.0082789147843345 0)
(1.0110556447712 -0.0085552864500744 0)
(1.000000568697 -0.00021590182737252 0)
(1.0000300925834 -0.0006505048924934 0)
(1.0000873879531 -0.0010868099426726 0)
(1.0001734444218 -0.0015224622045915 0)
(1.0002885063484 -0.0019565545676662 0)
(1.0004324515506 -0.0023887798474301 0)
(1.0006049690501 -0.0028186813872969 0)
(1.0008057853103 -0.0032456555239764 0)
(1.0010346023004 -0.0036689443864319 0)
(1.0012912550913 -0.0040880647654358 0)
(1.0015754395725 -0.0045025145154838 0)
(1.0018870684626 -0.0049122459699785 0)
(1.0022256951902 -0.0053166664251309 0)
(1.0025913290045 -0.0057158002782185 0)
(1.0029831851445 -0.0061083350100849 0)
(1.0034015226105 -0.0064946159172439 0)
(1.0038449052291 -0.0068722955551485 0)
(1.0043142963134 -0.0072431396021225 0)
(1.0048069872018 -0.0076028954739236 0)
(1.0053256734929 -0.0079567002905553 0)
(1.0058649388087 -0.0082957631526914 0)
(1.0064314312056 -0.0086325112306653 0)
(1.0070137427145 -0.0089473326368938 0)
(1.0076273458808 -0.0092688985583424 0)
(1.0082475509178 -0.0095527871101387 0)
(1.00890936063 -0.0098647808909292 0)
(1.009559037863 -0.010104280990327 0)
(1.01027442148 -0.010421782900555 0)
(1.0109390516847 -0.01058915497088 0)
(1.0117251455903 -0.010949140626425 0)
(1.0000006142495 -0.00026288099527267 0)
(1.0000319315099 -0.00079196298974871 0)
(1.000092727322 -0.0013230888497106 0)
(1.0001839898857 -0.0018529931627146 0)
(1.000305880942 -0.0023805801067437 0)
(1.0004582150554 -0.0029057022547391 0)
(1.0006406482582 -0.0034280104046966 0)
(1.000852924109 -0.0039468821334806 0)
(1.0010947482763 -0.0044614411850989 0)
(1.0013660056578 -0.0049711518424376 0)
(1.001666390402 -0.0054754558342151 0)
(1.0019959116962 -0.0059743453407527 0)
(1.0023540876538 -0.0064670732172639 0)
(1.0027410859158 -0.0069536400137256 0)
(1.0031559682631 -0.0074323462995359 0)
(1.0035992775711 -0.0079036280658285 0)
(1.0040691849799 -0.0083645354264232 0)
(1.0045672653194 -0.008817378136541 0)
(1.0050899223595 -0.0092568150180457 0)
(1.0056412231092 -0.0096894538413555 0)
(1.0062137478434 -0.010104137779988 0)
(1.0068172139914 -0.010516736163305 0)
(1.0074356705879 -0.010902223260519 0)
(1.0080914555071 -0.011297179458158 0)
(1.0087496281177 -0.011644808606202 0)
(1.00946052022 -0.012029156065804 0)
(1.0101475329376 -0.01232146919192 0)
(1.010922532933 -0.012714365620837 0)
(1.0116187197333 -0.012915548901556 0)
(1.0124838611767 -0.01336438969475 0)
(1.0000006619904 -0.00030985230646352 0)
(1.0000338066428 -0.00093335951178166 0)
(1.0000981773648 -0.0015592482669659 0)
(1.0001947543567 -0.0021831599749408 0)
(1.0003236050616 -0.0028038181237723 0)
(1.0004844778454 -0.0034213456075089 0)
(1.0006770012737 -0.0040356025783404 0)
(1.000900949485 -0.0046460056114115 0)
(1.0011560443198 -0.0052515872459295 0)
(1.001442239156 -0.0058517890103876 0)
(1.0017592403877 -0.0064460268720843 0)
(1.0021071813715 -0.0070343606737246 0)
(1.0024855579779 -0.0076158817251428 0)
(1.0028947342398 -0.0081905561966218 0)
(1.0033336181061 -0.0087562553259104 0)
(1.0038030921268 -0.0093135156548269 0)
(1.0043009050216 -0.0098587477411102 0)
(1.0048293448254 -0.010394881646721 0)
(1.0053838343938 -0.010915416769373 0)
(1.0059700193393 -0.011428596164155 0)
(1.0065782324112 -0.011920688236888 0)
(1.0072217036148 -0.012411349249065 0)
(1.0078793403428 -0.012869597918321 0)
(1.0085813237189 -0.013340713700995 0)
(1.0092810531527 -0.013754227610118 0)
(1.0100463675251 -0.014214341254998 0)
(1.0107745992966 -0.014561109957273 0)
(1.0116164889921 -0.015033823364177 0)
(1.0123477712081 -0.01526890945449 0)
(1.0133025802943 -0.015813163739013 0)
(1.000000709538 -0.00035664757529233 0)
(1.0000356115026 -0.0010741905116838 0)
(1.0001034309845 -0.0017944545845362 0)
(1.0002051318465 -0.0025118028681848 0)
(1.0003406771718 -0.0032247904095847 0)
(1.0005097483652 -0.0039339287866743 0)
(1.0007119545834 -0.004639396904605 0)
(1.000947115929 -0.0053407137709431 0)
(1.001214985853 -0.0060368529586944 0)
(1.0015156070053 -0.0067272679159854 0)
(1.0018487163922 -0.0074113847506624 0)
(1.0022146014426 -0.0080893630302628 0)
(1.0026127555013 -0.0087601294085243 0)
(1.0030437785847 -0.009423607101045 0)
(1.003506435153 -0.010077199173568 0)
(1.0040020025161 -0.010721554680575 0)
(1.0045277952507 -0.011352413016901 0)
(1.0050869089091 -0.01197340345155 0)
(1.0056737236576 -0.012576801202865 0)
(1.0062956472708 -0.013172651139915 0)
(1.006940579331 -0.013744441194255 0)
(1.0076256458264 -0.014315961883693 0)
(1.0083241294153 -0.014849727696244 0)
(1.0090748895228 -0.015400519895605 0)
(1.00981849622 -0.015882861887353 0)
(1.0106421541549 -0.016423059843205 0)
(1.0114144241354 -0.01682682263629 0)
(1.012329055908 -0.017384843769474 0)
(1.0130982854814 -0.017654834523163 0)
(1.0141518652755 -0.018302337210328 0)
(1.0000007548622 -0.00040298707605447 0)
(1.0000372435494 -0.0012136180146427 0)
(1.0001081906024 -0.0020273174988447 0)
(1.0002145344756 -0.0028369887907353 0)
(1.0003561260654 -0.0036410351113876 0)
(1.0005325811921 -0.0044404798998187 0)
(1.0007434996643 -0.0052359353028108 0)
(1.0009887639532 -0.006027090804236 0)
(1.0012681765942 -0.0068128983347383 0)
(1.001581891327 -0.0075928625937382 0)
(1.0019296976199 -0.0083664613129439 0)
(1.0023120679064 -0.0091339898316476 0)
(1.0027285186033 -0.0098942126008475 0)
(1.0031799255776 -0.010647004190464 0)
(1.0036649304504 -0.011389267679521 0)
(1.004185258192 -0.012121778811578 0)
(1.0047377959924 -0.012839584193289 0)
(1.005326531788 -0.013547091015493 0)
(1.0059447749244 -0.014235298967038 0)
(1.0066018515029 -0.014916215246365 0)
(1.0072831066485 -0.01557035956821 0)
(1.0080098771103 -0.016225988399428 0)
(1.0087494661147 -0.016838587739431 0)
(1.0095500897834 -0.017473215300297 0)
(1.0103385833954 -0.018028083526927 0)
(1.0112230178234 -0.01865351344058 0)
(1.0120410453088 -0.019117741876787 0)
(1.0130327630087 -0.019767571249191 0)
(1.0138420980697 -0.020074538954877 0)
(1.0150019292165 -0.020834310192105 0)
(1.0000007958084 -0.00044851412493043 0)
(1.0000386062228 -0.0013505729998647 0)
(1.0001121766278 -0.002256061013929 0)
(1.000222410717 -0.0031562492247598 0)
(1.0003690419023 -0.0040494093963254 0)
(1.0005516236942 -0.0049372013573833 0)
(1.0007697577399 -0.0058207872206107 0)
(1.001023405047 -0.0067000981544787 0)
(1.0013124355272 -0.0075741065183453 0)
(1.0016371356817 -0.0084424117346515 0)
(1.0019973716654 -0.009304590055904 0)
(1.0023938314154 -0.010161112245031 0)
(1.0028260844987 -0.011010589947181 0)
(1.0032953209353 -0.011852847021576 0)
(1.0038000893209 -0.012684264921476 0)
(1.0043426109731 -0.013505762362643 0)
(1.0049193704475 -0.014311685786789 0)
(1.0055353209354 -0.015107295911205 0)
(1.0061827074336 -0.015882286441006 0)
(1.0068728992374 -0.016650773607837 0)
(1.0075886337974 -0.01739015475004 0)
(1.0083556983728 -0.018133450033731 0)
(1.009135201181 -0.018828650312444 0)
(1.0099852165728 -0.01955179380169 0)
(1.0108182337992 -0.020183580141105 0)
(1.011764295113 -0.020900120882432 0)
(1.0126286316026 -0.021429234672301 0)
(1.0137001478878 -0.022178293982525 0)
(1.0145510112551 -0.022525518140072 0)
(1.0158228083795 -0.023407640938607 0)
(1.0000008304667 -0.00049282714949325 0)
(1.0000396130552 -0.0014838518924161 0)
(1.0001151371346 -0.0024786836577631 0)
(1.00022826424 -0.0034668022672859 0)
(1.0003786085341 -0.0044463713790838 0)
(1.0005656652658 -0.0054198097096749 0)
(1.0007890485822 -0.006388945468669 0)
(1.0010488125123 -0.0073540242345215 0)
(1.0013449122835 -0.0083140849024473 0)
(1.0016777873685 -0.009268868223475 0)
(1.0020474056681 -0.010218100594074 0)
(1.002454698674 -0.011162470502814 0)
(1.0028993216963 -0.012100453905737 0)
(1.0033828133761 -0.013031825675938 0)
(1.003903666533 -0.013952436884431 0)
(1.0044646409469 -0.014863367208088 0)
(1.0050618601018 -0.015758273974982 0)
(1.0057013003786 -0.01664334084787 0)
(1.0063741834781 -0.017506953715338 0)
(1.0070940110916 -0.018365462511603 0)
(1.0078409312433 -0.019193038395969 0)
(1.0086453376564 -0.020027709297121 0)
(1.009462077452 -0.020809599015298 0)
(1.0103593966992 -0.021626312841107 0)
(1.0112351410509 -0.022340017727229 0)
(1.0122420018088 -0.023154148436027 0)
(1.013151951344 -0.023753504591138 0)
(1.0143042124268 -0.024610009138728 0)
(1.0151972045549 -0.025002080039326 0)
(1.0165847386359 -0.026017523877921 0)
(1.0000008571055 -0.00053551008008366 0)
(1.0000401918056 -0.0016122081961218 0)
(1.00011686132 -0.0026931109583563 0)
(1.0002316799196 -0.0037657635961072 0)
(1.0003841432908 -0.0048282468376628 0)
(1.0005736921598 -0.0058838560942445 0)
(1.0007999621975 -0.0069351986362029 0)
(1.0010631123467 -0.00798290668738 0)
(1.0013631996886 -0.0090261345334316 0)
(1.0017008339266 -0.010064812607967 0)
(1.002076108638 -0.011098872822457 0)
(1.0024902223392 -0.012129265188618 0)
(1.0029429490891 -0.013154355242859 0)
(1.0034362047235 -0.014173874233412 0)
(1.003968468994 -0.015183149267177 0)
(1.0045430733871 -0.016183439910899 0)
(1.0051558367972 -0.017167747699889 0)
(1.0058137989219 -0.018143238849958 0)
(1.0065072326888 -0.019097026048688 0)
(1.0072518210934 -0.020047785765192 0)
(1.0080252136061 -0.020966428319237 0)
(1.0088624741192 -0.021896154308368 0)
(1.0097122804653 -0.022768989955776 0)
(1.0106531539431 -0.023684512067396 0)
(1.0115683398269 -0.02448562873957 0)
(1.012633407758 -0.025404240798154 0)
(1.0135869418219 -0.026080107702627 0)
(1.01481901782 -0.027052907675495 0)
(1.0157538330547 -0.027495846055575 0)
(1.0172587490402 -0.028656275702324 0)
(1.0000008747168 -0.00057615948689418 0)
(1.0000402894837 -0.0017344350009793 0)
(1.0001171926622 -0.0028973301290838 0)
(1.0002323482266 -0.004050330090131 0)
(1.0003851331169 -0.005191460519647 0)
(1.0005749346953 -0.0063250044945782 0)
(1.0008014178645 -0.0074544552199768 0)
(1.0010648561944 -0.0085809009859965 0)
(1.0013654230625 -0.009703661601068 0)
(1.0017039113018 -0.010822905747719 0)
(1.0020805612337 -0.011938828869677 0)
(1.0024968555558 -0.013052686402035 0)
(1.0029527185344 -0.014162766976966 0)
(1.0034504637932 -0.015268766536682 0)
(1.0039886037718 -0.016365511524658 0)
(1.0045710635378 -0.017454459754686 0)
(1.0051934264262 -0.018528015931062 0)
(1.005863814318 -0.019594374002243 0)
(1.0065716586075 -0.020639453080459 0)
(1.0073348249396 -0.021684304128981 0)
(1.0081286350787 -0.0226966368329 0)
(1.0089927714983 -0.023724867144688 0)
(1.0098700238944 -0.024692917377085 0)
(1.0108490206986 -0.0257124130584 0)
(1.0117988669586 -0.026606820180092 0)
(1.0129176529485 -0.027636865197725 0)
(1.0139113048001 -0.02839639199572 0)
(1.0152201730484 -0.029494588021536 0)
(1.0161954892524 -0.029995974393742 0)
(1.0178173728738 -0.031313658206339 0)
(1.0000008821754 -0.0006144039772609 0)
(1.0000398705037 -0.0018494188878606 0)
(1.000116033251 -0.0030894808326382 0)
(1.0002300721007 -0.0043179120002541 0)
(1.0003812419109 -0.0055327121619517 0)
(1.0005688786069 -0.0067392518531596 0)
(1.0007926839605 -0.0079420070795105 0)
(1.0010530529475 -0.0091425861866686 0)
(1.0013502862371 -0.010340524476606 0)
(1.0016853668913 -0.011536276245655 0)
(1.0020586986263 -0.01273035988124 0)
(1.0024720576856 -0.013924378490208 0)
(1.0029255465079 -0.01511658521402 0)
(1.0034218870305 -0.016306650669095 0)
(1.0039596705238 -0.017488941916496 0)
(1.004543423349 -0.01866513044663 0)
(1.0051685724003 -0.019827111677747 0)
(1.0058443143981 -0.020984132593419 0)
(1.0065593816968 -0.02212105242699 0)
(1.0073337584065 -0.023261284599231 0)
(1.0081407230634 -0.024369524535144 0)
(1.0090243257471 -0.025499268363147 0)
(1.0099221182734 -0.026566669834216 0)
(1.0109320375924 -0.027694935708527 0)
(1.0119105921727 -0.028688861357282 0)
(1.0130763368707 -0.029836852632027 0)
(1.0141057497509 -0.030688262071908 0)
(1.0154852905225 -0.031920197970451 0)
(1.0164994309915 -0.032489912221102 0)
(1.0182341727922 -0.033976042600869 0)
(1.0000008789025 -0.00064991892302285 0)
(1.0000389196826 -0.0019561846492549 0)
(1.0001133351734 -0.0032679344751085 0)
(1.0002247499046 -0.0045662478029629 0)
(1.0003722946392 -0.0058491257106387 0)
(1.0005552558477 -0.007123110927907 0)
(1.0007733779008 -0.0083937462920251 0)
(1.001027179058 -0.0096632168104075 0)
(1.0013170927737 -0.01093132136704 0)
(1.0016442923586 -0.012198843778002 0)
(1.0020093564467 -0.013466684454253 0)
(1.0024143553014 -0.01473683289124 0)
(1.0028595925204 -0.016007555739964 0)
(1.0033481968802 -0.017278508030542 0)
(1.0038788831687 -0.01854365760347 0)
(1.0044567696471 -0.019804898977001 0)
(1.0050772141011 -0.021053736242537 0)
(1.0057504484577 -0.022300470863332 0)
(1.0064646869594 -0.023529091188289 0)
(1.0072418813524 -0.02476530302738 0)
(1.0080537021944 -0.025971092792375 0)
(1.0089480133667 -0.027204733648192 0)
(1.0098583734282 -0.028375331808291 0)
(1.0108900590751 -0.029616405035432 0)
(1.0118908841029 -0.030716787069127 0)
(1.0130932396905 -0.031987175059895 0)
(1.0141562537445 -0.032942677889275 0)
(1.0155923158924 -0.03431033060467 0)
(1.016652388461 -0.034969239733948 0)
(1.0184861299549 -0.036628473056526 0)
(1.0000008649661 -0.0006824408888144 0)
(1.0000374376125 -0.0020539421557934 0)
(1.000109097644 -0.0034313696971381 0)
(1.0002163769691 -0.0047935032462633 0)
(1.0003582802355 -0.0061383693359548 0)
(1.0005340457732 -0.007473751156638 0)
(1.0007434635881 -0.0088063281601059 0)
(1.0009871720247 -0.010138909745262 0)
(1.0012657379646 -0.011471603015611 0)
(1.0015805173425 -0.012805559829632 0)
(1.001932268625 -0.01414211952704 0)
(1.0023233456076 -0.015483690609038 0)
(1.0027542707441 -0.01682860890583 0)
(1.0032285638406 -0.018176520690116 0)
(1.0037451060285 -0.019521074352302 0)
(1.0043095781279 -0.020864386016556 0)
(1.0049173604571 -0.022197719510852 0)
(1.005579654382 -0.023532401709659 0)
(1.0062843408745 -0.024851797100195 0)
(1.0070551831559 -0.026183776494518 0)
(1.0078626094127 -0.02748801674456 0)
(1.0087579467238 -0.02882720151672 0)
(1.009671445853 -0.030104130528014 0)
(1.0107150476247 -0.03146172680705 0)
(1.0117289602439 -0.032674219265658 0)
(1.0129584853578 -0.034073174034528 0)
(1.0140465098068 -0.035140758869507 0)
(1.0155310310276 -0.036653135272794 0)
(1.0166294245842 -0.03741208970485 0)
(1.0185555640533 -0.039254817743132 0)
(1.0000008403104 -0.00071177619912326 0)
(1.0000354415368 -0.0021421099433858 0)
(1.0001033676033 -0.0035788107988714 0)
(1.0002050421736 -0.0049983242479491 0)
(1.0003393431965 -0.0063987230817481 0)
(1.0005054608268 -0.0077890820619199 0)
(1.0007032307858 -0.0091772712920646 0)
(1.000933403173 -0.01056676220774 0)
(1.0011966737521 -0.011958009728817 0)
(1.0014945656286 -0.013352565706574 0)
(1.0018280168085 -0.014752261402639 0)
(1.0021996417357 -0.016159949503896 0)
(1.0026101947413 -0.017574095571582 0)
(1.0030635518372 -0.01899433847908 0)
(1.0035588057173 -0.020414106150801 0)
(1.0041021410507 -0.021835717925813 0)
(1.0046890645465 -0.023250387082279 0)
(1.0053316415287 -0.02467038901797 0)
(1.0060176148998 -0.026078791669281 0)
(1.0067723887158 -0.027505410646401 0)
(1.0075654445644 -0.028908136562272 0)
(1.00845138032 -0.030353634518134 0)
(1.0093574546813 -0.031739094828067 0)
(1.0104022038458 -0.033216337018712 0)
(1.0114184325332 -0.034545565007958 0)
(1.0126645237118 -0.036078940590793 0)
(1.0137670621828 -0.037266040744178 0)
(1.0152905446291 -0.038931660714231 0)
(1.0164177130076 -0.039801374997126 0)
(1.0184272086547 -0.041837353840167 0)
(1.0000008057636 -0.0007378033246548 0)
(1.0000329632468 -0.0022203231345198 0)
(1.0000962344855 -0.0037096421579022 0)
(1.0001909190278 -0.005179858549642 0)
(1.0003157671163 -0.0066291075432942 0)
(1.0004699202772 -0.0080677885912049 0)
(1.0006532576303 -0.0095050003696696 0)
(1.0008666279104 -0.010944904129227 0)
(1.0011108468998 -0.012388335790279 0)
(1.0013875815891 -0.013837272200215 0)
(1.0016979436741 -0.015294082160277 0)
(1.0020447722236 -0.016762081169294 0)
(1.0024290645168 -0.018239924942053 0)
(1.0028549949993 -0.019727243945918 0)
(1.00332192276 -0.02121735569774 0)
(1.0038364316016 -0.022712751330647 0)
(1.0043943010285 -0.024204813848058 0)
(1.0050082513292 -0.025706640398293 0)
(1.0056662071378 -0.027201416867324 0)
(1.0063948100806 -0.028720555063943 0)
(1.0071631951571 -0.030220880636755 0)
(1.0080285639789 -0.031772390104925 0)
(1.00891609116 -0.033267590545062 0)
(1.0099500732036 -0.034866677072615 0)
(1.0109569847669 -0.036316073622146 0)
(1.0122074798089 -0.037989303998586 0)
(1.0133129804261 -0.039302059201817 0)
(1.0148639450489 -0.041129368275429 0)
(1.016008656093 -0.042119903257531 0)
(1.0180906524108 -0.044356909988334 0)
(1.0000007619681 -0.00076047024973663 0)
(1.0000300462242 -0.0022884263370567 0)
(1.0000878216701 -0.0038236002142364 0)
(1.0001742484943 -0.0053377489140766 0)
(1.0002879501132 -0.0068290794180414 0)
(1.0004280166479 -0.0083093301719289 0)
(1.0005943641477 -0.0097888492029473 0)
(1.0007879232671 -0.011272505300026 0)
(1.0010096173587 -0.012761540652188 0)
(1.0012612295381 -0.014258376931244 0)
(1.0015440329624 -0.015765956552823 0)
(1.001861045664 -0.017288073577894 0)
(1.0022135105611 -0.018823625132405 0)
(1.0026058288918 -0.020372239445691 0)
(1.0030376792226 -0.021927222395178 0)
(1.0035159086943 -0.023491220116595 0)
(1.0040367425173 -0.025055984383155 0)
(1.0046132511438 -0.026635326491043 0)
(1.0052340010889 -0.028212949977011 0)
(1.0059261519997 -0.029821502482782 0)
(1.0066596100756 -0.031417559936504 0)
(1.0074925715694 -0.033073575429515 0)
(1.0083504809806 -0.034678780106597 0)
(1.0093603812625 -0.036400535835773 0)
(1.0103463445782 -0.037972500043531 0)
(1.0115868937306 -0.039790223618163 0)
(1.0126840269969 -0.041232830091261 0)
(1.0142471086576 -0.043231703621794 0)
(1.015401064208 -0.044348661177262 0)
(1.0175310471804 -0.046794895855525 0)
(1.0000007102221 -0.00077978620638992 0)
(1.0000267364815 -0.002346449031113 0)
(1.0000782650643 -0.0039207352154635 0)
(1.0001553069276 -0.0054720848969506 0)
(1.0002563603531 -0.0069987772931276 0)
(1.0003804584362 -0.0085138852883864 0)
(1.0005275435299 -0.010029011643797 0)
(1.0006986075083 -0.01154973846333 0)
(1.0008946637785 -0.013077726983764 0)
(1.0011175792289 -0.01461585331703 0)
(1.0013687682886 -0.016167659219303 0)
(1.0016513816959 -0.01773743359329 0)
(1.0019668954151 -0.019324358343941 0)
(1.0023198725327 -0.020928078576954 0)
(1.0027103292255 -0.02254196315532 0)
(1.0031452703438 -0.024168829264539 0)
(1.0036214591506 -0.025800927380968 0)
(1.0041520963533 -0.027452765021261 0)
(1.0047266808903 -0.029108809438404 0)
(1.0053723541481 -0.030802783540495 0)
(1.0060606460949 -0.032491604327265 0)
(1.0068493229303 -0.03424943745767 0)
(1.0076664376037 -0.03596399364194 0)
(1.008638214944 -0.037807193086794 0)
(1.0095915706441 -0.039504281300609 0)
(1.01080617201 -0.04146784109257 0)
(1.0118827875306 -0.043045145421003 0)
(1.0134414406165 -0.045223412752276 0)
(1.014595093165 -0.046472202175468 0)
(1.0167460236851 -0.049134772140726 0)
(1.0000006502376 -0.00079581404652438 0)
(1.0000230769511 -0.0023945728774375 0)
(1.0000676961411 -0.0040013456640177 0)
(1.0001343724924 -0.0055832994055348 0)
(1.0002214854367 -0.0071387808349811 0)
(1.0003279966538 -0.0086821771918527 0)
(1.0004538617561 -0.010226339323288 0)
(1.0006001154495 -0.011777558342816 0)
(1.0007678462741 -0.013337919707937 0)
(1.0009589607614 -0.014910745559765 0)
(1.001174983807 -0.016500185895517 0)
(1.0014191378568 -0.018111023309071 0)
(1.0016931180203 -0.019742768380165 0)
(1.0020015810343 -0.02139510058187 0)
(1.0023448929875 -0.023061527300248 0)
(1.0027301186712 -0.024745056061053 0)
(1.0031546048071 -0.026438533860213 0)
(1.0036315240055 -0.02815719058958 0)
(1.0041514233363 -0.029886370311348 0)
(1.004741147586 -0.031660936010383 0)
(1.0053741818397 -0.033438270631301 0)
(1.0061071894162 -0.035294309711846 0)
(1.0068720359206 -0.037115724128645 0)
(1.0077918170941 -0.039078043837824 0)
(1.0087007265689 -0.040901405663892 0)
(1.009871820751 -0.043008536899487 0)
(1.0109168466778 -0.044727943134023 0)
(1.0124502694952 -0.047084911366266 0)
(1.0135909575956 -0.048473365601129 0)
(1.0157484978387 -0.051359065052875 0)
(1.0000005812537 -0.00080868543645886 0)
(1.0000191295329 -0.0024331545051897 0)
(1.0000562801271 -0.0040659698358481 0)
(1.0001117697114 -0.0056720883110038 0)
(1.0001838692276 -0.0072499326202959 0)
(1.0002714467878 -0.0088151866011494 0)
(1.0003744563763 -0.010381935798882 0)
(1.000493952747 -0.011957160688368 0)
(1.0006311021333 -0.013543372217342 0)
(1.0007878055185 -0.015144323345143 0)
(1.0009656833174 -0.016764784880387 0)
(1.0011679218188 -0.018410003802438 0)
(1.0013964457164 -0.020079869415889 0)
(1.0016558640273 -0.021774059971772 0)
(1.0019469979794 -0.023486326994259 0)
(1.0022767357085 -0.025219793926169 0)
(1.0026432446321 -0.026968084627166 0)
(1.0030592309389 -0.028747029206261 0)
(1.0035167523599 -0.030543101186927 0)
(1.0040416123729 -0.032392202387419 0)
(1.0046100658289 -0.034252334016113 0)
(1.0052765057524 -0.03620147999572 0)
(1.0059779397253 -0.03812471658859 0)
(1.0068325011782 -0.040202807196992 0)
(1.0076843726837 -0.042148550191616 0)
(1.0087956938732 -0.04439812262354 0)
(1.0097975442904 -0.04625980216289 0)
(1.0112816548541 -0.048789358971833 0)
(1.0124050008016 -0.050335728353194 0)
(1.0145436188003 -0.053428947633454 0)
(1.0000005050929 -0.00081867503733355 0)
(1.0000150564333 -0.0024629617650027 0)
(1.0000443897815 -0.004115752181269 0)
(1.0000881103395 -0.0057398869591535 0)
(1.0001443782529 -0.0073338753109506 0)
(1.0002119528902 -0.0089146787803076 0)
(1.0002907851028 -0.010497632354744 0)
(1.0003819345363 -0.012090411723131 0)
(1.0004866608936 -0.01369595256509 0)
(1.0006068048529 -0.015318380278043 0)
(1.0007441028425 -0.016963096308347 0)
(1.0009015676358 -0.01863579796899 0)
(1.0010814318415 -0.020336881022493 0)
(1.0012880089361 -0.022065966513942 0)
(1.0015228541287 -0.023817234733704 0)
(1.001792129768 -0.025593662305345 0)
(1.0020955290476 -0.02739001415906 0)
(1.002444078947 -0.029222174590866 0)
(1.0028329993882 -0.031078556282543 0)
(1.0032844555358 -0.032995085835839 0)
(1.0037810538066 -0.034931759432801 0)
(1.0043695726155 -0.036967250492156 0)
(1.0049995585149 -0.038986235350077 0)
(1.0057734883631 -0.041175094454618 0)
(1.0065601920527 -0.0432357974903 0)
(1.0075909773024 -0.045629403488699 0)
(1.0085441205829 -0.047619462520002 0)
(1.0099525782387 -0.050343388524459 0)
(1.0110562145628 -0.052005167570452 0)
(1.0131404679749 -0.055367946510265 0)
(1.0000004205127 -0.00082633703968319 0)
(1.0000110808862 -0.0024856777669043 0)
(1.0000325390904 -0.0041533684134901 0)
(1.0000642014827 -0.0057904405569145 0)
(1.0001041070774 -0.0073954900518441 0)
(1.0001508716028 -0.0089866165805336 0)
(1.0002043749213 -0.01058042548761 0)
(1.0002657579069 -0.012185379885421 0)
(1.0003365727164 -0.013804852184506 0)
(1.0004185436376 -0.015443285717912 0)
(1.0005134453178 -0.017106658554131 0)
(1.000623928398 -0.018801078799214 0)
(1.0007525858448 -0.020527636270977 0)
(1.000903264876 -0.022285947557848 0)
(1.0010785818249 -0.024071003229112 0)
(1.0012833405293 -0.025885511822301 0)
(1.0015196252464 -0.027726088131609 0)
(1.0017952215918 -0.02960780986702 0)
(1.0021108767865 -0.031522734964179 0)
(1.0024810621139 -0.033504260922421 0)
(1.0029006498438 -0.035518959979778 0)
(1.0033986498355 -0.037640131587546 0)
(1.0039528388165 -0.039761752676541 0)
(1.004624754672 -0.042064064031348 0)
(1.0053465875468 -0.044253788608333 0)
(1.0062573671581 -0.046803308341468 0)
(1.0071784060443 -0.04893920733242 0)
(1.0084376029488 -0.051904893829748 0)
(1.0096078418191 -0.053688072270667 0)
(1.0115362972214 -0.057613649998037 0)
(1.0000002908766 -0.00083304785423449 0)
(1.000006653856 -0.0025057920083188 0)
(1.0000200279478 -0.0041876516567784 0)
(1.0000393433323 -0.0058377962840313 0)
(1.0000627321795 -0.0074546026318834 0)
(1.0000887039423 -0.0090572615993156 0)
(1.000117096599 -0.010663522699329 0)
(1.0001487916269 -0.012282740742649 0)
(1.0001851803281 -0.01391891517317 0)
(1.0002279926228 -0.015576710715199 0)
(1.000279029732 -0.017262782782805 0)
(1.000340518619 -0.018983777801693 0)
(1.0004153023941 -0.020741590969222 0)
(1.0005067389003 -0.022535773090294 0)
(1.0006185650524 -0.024362268190334 0)
(1.0007545899787 -0.026223349271172 0)
(1.0009191203237 -0.02811855538733 0)
(1.0011166585282 -0.030061755518952 0)
(1.0013535907339 -0.032051396555648 0)
(1.0016359903705 -0.034115501918815 0)
(1.0019740169202 -0.036233491296296 0)