/*--------------------------------*- C++ -*----------------------------------*\
| =========                 |                                                 |
| \\      /  F ield         | OpenFOAM: The Open Source CFD Toolbox           |
|  \\    /   O peration     | Version:  2112                                  |
|   \\  /    A nd           | Website:  www.openfoam.com                      |
|    \\/     M anipulation  |                                                 |
\*---------------------------------------------------------------------------*/
FoamFile
{
    version     2.0;
    format      ascii;
    arch        "LSB;label=32;scalar=64";
    class       volScalarField;
    location    "3";
    object      p;
}
// * * * * * * * * * * * * * * * * * * * * * * * * * * * * * * * * * * * * * //

dimensions      [0 2 -2 0 0 0 0];

internalField   nonuniform List<scalar> 
22000
(
0.020903603804988
0.020879785933576
0.020830227507517
0.020753849599033
0.020650177690527
0.020519245999488
0.020361382427653
0.020176959789061
0.019966331602337
0.019729880364728
0.019467983190108
0.019180935959677
0.018868904207028
0.018531963306999
0.018170341492164
0.017784879619986
0.017377031027554
0.016947847897758
0.016497014276291
0.016023895949079
0.015529358614611
0.015015703022863
0.0144843602401
0.013935403428834
0.013368683235147
0.012785690544081
0.012187893436498
0.011576929331509
0.010952630729438
0.010316527578283
0.021353021049728
0.021327728302717
0.021276173757736
0.021197394257225
0.021090864445019
0.020956540018138
0.020794693788421
0.020605685245623
0.020389871917783
0.020147661704145
0.019879481656957
0.01958565130914
0.019266283705829
0.018921279442567
0.01855066694647
0.018155403365141
0.017737369655893
0.017297762611062
0.01683583567758
0.016350593616631
0.015843103382784
0.015316098995114
0.014770994228235
0.014207609835852
0.013625520806039
0.013026335831024
0.012411394341884
0.011782569049176
0.011139295610974
0.010483639946681
0.022179635099843
0.02215313524224
0.022099243903031
0.022017042332277
0.021906031774447
0.021766153185226
0.021597647953697
0.021400855749354
0.021176131598057
0.0209239103298
0.020644642792686
0.020338615019573
0.020005830070598
0.019646004186199
0.019259044442206
0.01884613351577
0.01840957942552
0.017950605239189
0.017467925527951
0.016960191142395
0.016428704008051
0.015876662547747
0.015305437849072
0.014714686822712
0.014103744353959
0.013474579774721
0.01282834275614
0.012167451969506
0.011490527427873
0.010800671042609
0.023334888867345
0.023306993926371
0.023250269932942
0.023163757849836
0.023046934623953
0.02289972683072
0.022722366694195
0.022515188154032
0.022278547467829
0.022012883191632
0.021718621272257
0.021395996055274
0.021044942110006
0.020665049805087
0.020256093624633
0.019819355018978
0.019357415917475
0.018871527932603
0.018360008119557
0.017821243221383
0.01725667712166
0.016669886743334
0.016062180662645
0.015433164198158
0.014781887450678
0.014110756197081
0.013420550585216
0.012714456244842
0.011989878381537
0.01125134144607
0.024776948390968
0.02474742819317
0.024687400631842
0.024595854808121
0.024472231341376
0.024316435424831
0.024128679741455
0.023909268722568
0.023658530739954
0.02337688101149
0.023064700454727
0.022722174683905
0.022349184460909
0.02194518780748
0.021509793819512
0.021044343047917
0.020551652162259
0.020033000254811
0.019486343325574
0.018909823714021
0.01830493843516
0.017675543980546
0.017022821202994
0.016346397506479
0.0156450064453
0.014921559963483
0.014176291991608
0.013413377744429
0.012628652038372
0.011828573994216
0.026469421904527
0.026438143654503
0.026374538211183
0.026277537712603
0.026146535169087
0.025981401888539
0.025782325463994
0.025549570226641
0.025283422047005
0.024984262496327
0.02465240446698
0.02428794680696
0.023890688569369
0.023459937697714
0.02299509511375
0.022497480021779
0.021970055849888
0.021414100028903
0.020827248054364
0.020207449902811
0.019556222658528
0.018877636274318
0.018172685681604
0.017441068955695
0.016681182967941
0.015896503097947
0.015086554000029
0.014256670247516
0.013400752494999
0.012527679135666
0.028379476859095
0.028346413166952
0.028279170151163
0.028176621133163
0.028038106385802
0.027863453914025
0.027652808891685
0.027406369966325
0.02712434711478
0.026807047106234
0.026454674275614
0.026067216342918
0.025644386868258
0.025185364804591
0.02468936558279
0.024157647998243
0.023593198484792
0.022997202154993
0.022366981700668
0.021700336801196
0.020998715569674
0.020266287242189
0.01950373258794
0.018710873016708
0.017885671498335
0.017032266930535
0.01614922621181
0.015243285973167
0.014305962749419
0.013348959873783
0.030476498625961
0.030441725481218
0.030370994085005
0.030263117538158
0.03011737507754
0.029933535892403
0.029711686442544
0.029451942135657
0.029154417939525
0.0288193283187
0.028446748958227
0.028036524043493
0.027588237178443
0.0271008934334
0.026573467613462
0.026007075614416
0.025404630616045
0.024767183258384
0.02409175252784
0.023376001887212
0.022621237946987
0.021831668410713
0.021007572621415
0.020148932161683
0.019253154130347
0.018325117673833
0.017362168696183
0.016372690511833
0.015345306751732
0.014295048043626
0.032731267982064
0.032694960378196
0.032621088650988
0.032508408441229
0.032356135477782
0.032163973814853
0.031931937077152
0.031660032291868
0.031348241661133
0.030996639163519
0.030605122447685
0.030173354428268
0.029700771239794
0.029186208859138
0.028628394482799
0.028028231201026
0.027388439380459
0.026709866703501
0.025989229094692
0.025224037484456
0.024415337863558
0.023567255136026
0.02267957785034
0.021752439423498
0.020782590703409
0.019775633282003
0.018727502571864
0.017648349145744
0.016523453212581
0.015371523571997
0.035115537847645
0.03507796408273
0.035001492391367
0.0348848251479
0.034727110447669
0.034527971917752
0.03428732488773
0.034005043052186
0.03368095442852
0.033314967358145
0.03290677896309
0.032455850648711
0.03196143309412
0.0314221458742
0.030836420425485
0.030204869912706
0.02952990531201
0.028812099882165
0.028047848867451
0.027234495000609
0.026372697097399
0.025466399105392
0.024514776162239
0.023518131685969
0.022472392750136
0.021383900476152
0.020246899755776
0.019073428087764
0.017844965615536
0.016584071482391
0.03760191930477
0.037563429637397
0.037485063754285
0.037365475787549
0.037203743731082
0.036999400637422
0.036752247745946
0.036462010450968
0.036128340783348
0.035750946476267
0.035329284861898
0.034862572267178
0.034349827359297
0.033789428067623
0.033179491865939
0.032520274037229
0.031813753475415
0.031060147794377
0.03025551160086
0.029397007781116
0.028484786400212
0.027522490229984
0.026508524433241
0.0254433549326
0.024321901378923
0.023151258530155
0.02192364148894
0.02065311381124
0.019316798244037
0.017941332348892
0.040163951832813
0.040124964848991
0.040045551400797
0.039924325300069
0.039760294034621
0.039552891612881
0.039301790375059
0.039006547837253
0.038666613470611
0.038281461659954
0.037850278577492
0.037372007771569
0.036845412869012
0.036268614632681
0.03563938774214
0.034957554324653
0.034224548506474
0.033440149091839
0.032600030815967
0.031701136089483
0.030742984572787
0.029728783076394
0.028656024744197
0.027525284886277
0.026330311569001
0.025078891597996
0.023760896394232
0.022392496018253
0.020945841923185
0.019451901375059
0.042776307134438
0.042737294897202
0.042657791219488
0.042536376782395
0.042371987602769
0.042163950447876
0.041911795632882
0.041614899297487
0.041272494208297
0.040883803527076
0.040447723746797
0.039962902826052
0.039427817230711
0.038840297866693
0.038197745639909
0.037499492729423
0.036746335937325
0.035937536581924
0.035068339815884
0.034135415814189
0.0331375252226
0.032077312807687
0.030951219684343
0.029759870372438
0.028495661082721
0.027166971019379
0.025761018479511
0.024296056915301
0.022738682334996
0.02112424334746
0.045415051514821
0.045376520486293
0.045297957576325
0.045177913367945
0.045015252559216
0.044809192834651
0.044559119034846
0.044264222231906
0.043923510753249
0.043535940390528
0.043100099309952
0.042614316598187
0.042076754165245
0.04148493142379
0.040835859574705
0.040128332998354
0.039362427128088
0.038536817599147
0.037646283394974
0.036687182636368
0.035657393844709
0.034558878541737
0.033386865224511
0.0321419474422
0.030814963393448
0.029414759037761
0.027925593423358
0.026367685311514
0.024701528824207
0.022966642793249
0.048057932823416
0.048020400299969
0.047943841124512
0.047826778129769
0.047668006151856
0.047466636148343
0.047221908676559
0.046932829894105
0.046598180738224
0.046216641023164
0.045786482795571
0.045305706235585
0.044772146879156
0.044183002700164
0.043534889356341
0.042826025018802
0.042055695864457
0.041221923347554
0.040318977682586
0.039342852985512
0.038290437104966
0.037162907589753
0.035954125860403
0.034664587610627
0.033283343046185
0.031819596741279
0.030254347605016
0.028609561766621
0.026839144447777
0.024985931102193
0.050684633309819
0.050648615303599
0.050575110797843
0.050462628887904
0.050309902509446
0.050115940830398
0.049879842888412
0.049600432481411
0.049276265906834
0.048905750953037
0.048486854384677
0.048017256279703
0.047494464200927
0.046915344332301
0.046276110353275
0.04557437378056
0.044808592564563
0.043976084975103
0.043070587875516
0.04208766656093
0.041023119078833
0.039877250439269
0.03864240758013
0.037318950386764
0.035893886390821
0.034376707309309
0.032744950550847
0.031022127436899
0.0291560202937
0.027186721552497
0.053276942759458
0.053242934269178
0.053173492380695
0.053067130402834
0.052922532035538
0.052738614269417
0.052514343954207
0.052248374525747
0.051939049545375
0.051584514572794
0.051182443088374
0.050730205162278
0.050224983824118
0.049663319128076
0.049041036977482
0.048355140666259
0.047603244661665
0.046781940255735
0.045884419971251
0.044905759634166
0.043840591975526
0.04268824717821
0.041439447333096
0.040094318415086
0.038637567284827
0.037078825395426
0.035391854278944
0.033600866700967
0.031653343547358
0.029576024035708
0.055818891602401
0.055787351777015
0.055722910258555
0.055624105649338
0.055489588874726
0.055318197580622
0.055108779091696
0.054859833667026
0.054569512189886
0.054235718003739
0.053855853310001
0.053426996556986
0.052946015609542
0.052409138445521
0.051811829729315
0.051150505777462
0.05042194276811
0.049622006171894
0.048743339051239
0.047780491671203
0.046726880726115
0.045580787435184
0.044331245598487
0.042978002092966
0.041503292072379
0.039916639010434
0.038187890321592
0.036341171091977
0.034323932524972
0.03215392037176
0.058296823809945
0.05826816587198
0.05820956926158
0.05811962089479
0.057996959815559
0.057840362213478
0.057648571778023
0.057419954020082
0.057152489971025
0.056843868215525
0.056491255599273
0.056091474456862
0.055641102986797
0.055136077751204
0.054571529339576
0.053943314065426
0.053247395664055
0.052478938470838
0.051630051521221
0.050694743526195
0.049665207751698
0.048538632820525
0.047302382915404
0.045955638318235
0.044478162194017
0.042878938469357
0.041123830526207
0.039236770451596
0.037161201706015
0.034913530396835
0.060699389701041
0.06067398391648
0.060621977637701
0.060542020846795
0.060432764926162
0.06029295387306
0.060121252956742
0.059915915935873
0.059674779478016
0.059395346830988
0.059074589202271
0.058709114326643
0.05829524891064
0.0578286711952
0.057304224266112
0.056717247711662
0.056062947702749
0.055335819584536
0.054527468781169
0.053631332758153
0.052638414431841
0.051544778995383
0.050336219398352
0.049011217288619
0.047547187455147
0.045952291826163
0.04418825437587
0.042278309009675
0.040158690000696
0.037847116436036
0.063017444592819
0.06299562403087
0.062950872791844
0.062881894513824
0.06278736899808
0.062666045812689
0.062516545131777
0.062337036224885
0.062125243993371
0.061878525936176
0.061593705852963
0.0612672177285
0.060895175817511
0.06047303472209
0.059995412136234
0.059457186696538
0.058852909643984
0.058176459790216
0.057419031940763
0.056573453470483
0.055629651205468
0.054582474510654
0.053416290063227
0.05212862889852
0.050694728772973
0.049121899926552
0.047368006719915
0.045455631105678
0.043310570959034
0.040950193084136
0.065243922808958
0.065225923063689
0.065188964102353
0.065131800302052
0.065053147678902
0.064951784172001
0.064826303728456
0.064674806263396
0.064494927346156
0.064283918676194
0.064038523745771
0.063755058690796
0.063429479118097
0.063057062069624
0.062632278567757
0.062149590774632
0.061602999995772
0.060985774879505
0.060288844743242
0.059504359621269
0.058621539357123
0.057633896799022
0.056524978529008
0.055290749996233
0.053904777205997
0.052372509958339
0.050648534973394
0.048755964725747
0.046610625413589
0.044224590038058
0.067373876008903
0.067359676757733
0.067330644756258
0.067285703329727
0.067223699111139
0.067143434106279
0.067043437750039
0.066921742311229
0.066775923262105
0.066603126503291
0.066400048513868
0.066162918998657
0.065887578520812
0.065569168636303
0.065202110999821
0.064780548804635
0.064298128616494
0.06374750307918
0.063119453853489
0.062405090910537
0.061593331479933
0.060675702586229
0.059636402863767
0.058468256607699
0.05714643952995
0.055669997090548
0.053994987916284
0.052137815440324
0.050012257190798
0.047636791921481
0.069404686511319
0.069394050047071
0.069372476773916
0.069339256688488
0.069293614982396
0.069234494801016
0.06916031273611
0.069068990769153
0.068958097882335
0.068824874623412
0.068665978180706
0.068477525215834
0.068255231758588
0.06799407320253
0.067688365304422
0.067331870371963
0.066917960452979
0.066438761391377
0.065885235571909
0.065247378556633
0.064514301324242
0.063674345173517
0.062713519760129
0.061617595023974
0.060368896309061
0.058949308757262
0.057332092653483
0.055498014697107
0.053384833030636
0.050995969169113
0.07133630196435
0.071329356971848
0.071314986254143
0.071293132714936
0.071263006910504
0.071223961117666
0.071174506692987
0.071112675232409
0.071036288846005
0.070942793295495
0.070828872230358
0.070690608117419
0.070523641522483
0.070322856379148
0.070082491686033
0.069795870217068
0.06945577655984
0.069053480859213
0.068580034653547
0.068024925202046
0.067378651785112
0.066626889470044
0.06575780257252
0.064746852278459
0.063586288807513
0.062231787942614
0.060694889942472
0.058891302749481
0.056829277334373
0.054294190477226
0.0097083599132416
0.0091305532251818
0.0085448044659071
0.0079523944463636
0.007354266856199
0.0067511609802029
0.0061438194175902
0.0055330830771164
0.0049198767273248
0.004305153085123
0.0036898621653839
0.0030749574841987
0.0024613997718327
0.0018501452251349
0.0012421387257662
0.00063830603336449
3.9534892294001e-05
-0.00055332070372834
-0.0011394025941063
-0.0017178396360493
-0.0022878051383567
-0.0028485362977602
-0.0033992641451721
-0.0039390393564427
-0.0044666438284084
-0.0049805653049056
-0.0054815090478534
-0.0059692351384954
-0.0064430737694181
-0.006902382746548
-0.0073466916665474
-0.0077759379072547
-0.0081901918137772
-0.0085893478793922
-0.0089732040538293
-0.0093414618659151
-0.0096937553130489
-0.010029698350554
-0.010348922136987
-0.010651090371891
-0.010935942479993
-0.011203301980963
-0.011453090832198
-0.011685271470778
-0.011899879664149
-0.012097040908654
-0.012276882132491
-0.012439708995702
-0.01258580285027
-0.012716333421933
0.0098598583183391
0.009270562937249
0.0086725914878521
0.0080681515436592
0.0074583885303309
0.0068438494136554
0.0062250276560838
0.0056026062311728
0.0049774415348902
0.0043504632656261
0.0037226131340838
0.0030948359571494
0.0024680884372287
0.0018433467505861
0.0012216027276713
0.00060383896050839
-8.9878665953059e-06
-0.00061591581602849
-0.0012159257228696
-0.0018079535223199
-0.0023909546346669
-0.002963994668225
-0.0035263033336292
-0.0040774669567701
-0.0046176642371394
-0.0051478850859997
-0.0056648023999805
-0.0061670570811961
-0.0066542962864503
-0.0071263247848694
-0.0075829407176488
-0.008023734697567
-0.0084481188199193
-0.0088558084913325
-0.0092465432829048
-0.0096200506596896
-0.0099760768794325
-0.010314413218812
-0.010634902777014
-0.010937477843297
-0.011222131229976
-0.011488962293513
-0.011737945959659
-0.011969301244064
-0.012183440108088
-0.012380987116305
-0.012562424115338
-0.012728525150894
-0.012879517011649
-0.013015568205227
0.010146579253282
0.0095300154227413
0.0089027033301603
0.0082689751876284
0.0076307128585183
0.0069883027668773
0.0063418778296417
0.0056919201059704
0.0050392715125293
0.004384923589892
0.0037298704702109
0.003075086047315
0.0024215530601381
0.0017702789005201
0.0011222805363565
0.0004785516694421
-0.00015995578734197
-0.00079231529067608
-0.0014176147179172
-0.002034989485432
-0.00264367823234
-0.0032429767274161
-0.0038320964411834
-0.0044098892594681
-0.0049745706912258
-0.0055234490724685
-0.0060580056498003
-0.0065782214265847
-0.007083415749908
-0.0075729042888423
-0.008046094890791
-0.00850243824446
-0.0089415866567152
-0.0093631106910167
-0.0097666588307706
-0.010152000091092
-0.010518962474007
-0.010867418012834
-0.011197269148362
-0.011508499430012
-0.011801126092953
-0.012075270960713
-0.012331221398264
-0.012569399701123
-0.012789896186736
-0.01299295002083
-0.013178514377711
-0.013346733770406
-0.013496759356595
-0.013627299119411
0.010552376032333
0.0098932968552644
0.0092207631256002
0.0085424948173694
0.0078614512950409
0.0071776888418138
0.0064907213852205
0.0058006728542147
0.0051083199526337
0.0044147097382799
0.0037208834536107
0.003027831164499
0.0023365443003558
0.0016480427782906
0.00096335968179221
0.00028351421768743
-0.00039049252839195
-0.0010576424077212
-0.0017168649890526
-0.0023670515494355
-0.0030070918046199
-0.0036358841973482
-0.0042523332301345
-0.0048554818016581
-0.0054447785915432
-0.006020360029574
-0.0065808683449311
-0.0071255350717842
-0.0076537362460789
-0.0081648244164027
-0.0086582118368155
-0.0091334374186237
-0.0095901439211904
-0.010028028894718
-0.010446828016826
-0.010846329233184
-0.011226366753882
-0.011586843900378
-0.011927711159936
-0.01224900942436
-0.012550790659505
-0.01283321298318
-0.013096372534982
-0.013340450198261
-0.01356548682501
-0.01377175754596
-0.013959209722557
-0.014128010692232
-0.014277038390481
-0.014404314707795
0.011072008938749
0.010356955946383
0.0096248481757037
0.0088880877328349
0.0081510783902277
0.007413391215571
0.0066736873568308
0.0059316216441032
0.0051879222073563
0.0044437634157709
0.0037002979163212
0.0029585689890867
0.0022195981013256
0.001484437459322
0.00075415535139663
2.9808443747351e-05
-0.00068755751462179
-0.0013968777956478
-0.0020970528594327
-0.00278699115941
-0.0034656792599879
-0.0041322102111569
-0.0047857724439952
-0.0054256367360226
-0.0060511175539346
-0.0066614932389381
-0.0072557124372011
-0.0078327830714637
-0.008391889475461
-0.0089324452242588
-0.0094540123901699
-0.0099561995240336
-0.01043861733131
-0.01090089857475
-0.01134272123156
-0.011763835974677
-0.012164049886066
-0.012543249732166
-0.012901350542154
-0.01323836075071
-0.013554271996818
-0.013849227742389
-0.014123296599407
-0.014376806978665
-0.014609893877562
-0.014823056001664
-0.015016216885955
-0.015189582994185
-0.015340847218725
-0.015465262972669
0.01170215059989
0.010918710050833
0.01011346169804
0.0093050138668076
0.0084996771266676
0.0076963672022872
0.0068926117045652
0.0060874467042617
0.0052815360259816
0.0044762145981647
0.0036727637768973
0.0028722669546531
0.0020757460836064
0.0012842517060954
0.00049884915950067
-0.00027941283525738
-0.0010494978059312
-0.0018103529070609
-0.002560902231415
-0.00330008880715
-0.0040269282338101
-0.0047405000838981
-0.0054398870545127
-0.0061240829760948
-0.0067919375831038
-0.0074419114456978
-0.0080738482725224
-0.0086869977419217
-0.0092805876976424
-0.0098540038391848
-0.010406718526081
-0.010938231074771
-0.01144807867309
-0.011935881421211
-0.012401346261431
-0.01284426745883
-0.013264486319147
-0.013661925519846
-0.014036531211341
-0.014388376566564
-0.014717512675848
-0.015024190842229
-0.015308528147593
-0.015570942582034
-0.015811506520618
-0.016030724044654
-0.016228205799342
-0.016403946947731
-0.016554347142015
-0.016672847072452
0.012443470616077
0.011579026852408
0.010686738209412
0.0097932793471897
0.0089073294557791
0.008026868766771
0.0071479245490543
0.0062687186366201
0.0053898103874437
0.0045127173637478
0.0036388697777331
0.0027693955468979
0.0019053197584224
0.0010477050683328
0.00019764027251805
-0.00064379954046912
-0.0014755468085714
-0.0022965084246469
-0.0031055549737872
-0.003901553192093
-0.0046834045818392
-0.0054500393654671
-0.006200382366765
-0.0069333600307803
-0.0076479931451443
-0.0083434726729496
-0.0090189880418799
-0.0096738002573594
-0.01030721757043
-0.010918594105306
-0.011507344186188
-0.012072955794416
-0.012614989420942
-0.013133089196871
-0.01362696656848
-0.014096412725991
-0.014541258657243
-0.01496143253933
-0.015356875138958
-0.015727679787677
-0.016073875121833
-0.016395730906282
-0.016693297987052
-0.016967025042432
-0.017216880775567
-0.017443447949385
-0.017646089593948
-0.017824695936448
-0.017974088678305
-0.018084351129874
0.013300129099231
0.012342968381417
0.011350134794049
0.010358476015543
0.0093796318265773
0.0084104024210514
0.0074449547816718
0.0064805240780062
0.0055175766545552
0.0045578992372556
0.0036031434757645
0.0026545116151679
0.0017130329880215
0.0007797766231067
-0.00014414698465121
-0.0010576318421619
-0.0019595686536244
-0.0028488103067
-0.0037241655339149
-0.0045844396687852
-0.0054284887156485
-0.0062552350594931
-0.0070636434174871
-0.007852702173325
-0.0086214460822775
-0.0093689447027588
-0.01009435859859
-0.010796884816309
-0.011475761740791
-0.01213028421111
-0.012759824183971
-0.013363848664783
-0.013941908638587
-0.014493639779826
-0.01501873656766
-0.015516980881902
-0.015988195849008
-0.016432321809434
-0.016849290945317
-0.017239214279054
-0.017602091273794
-0.017938239759724
-0.018247673731466
-0.018530962906149
-0.018787988964831
-0.01901952163245
-0.019224549066538
-0.019403009109059
-0.019547816262426
-0.01964637223141
0.01427811524529
0.013216136193686
0.012108579036224
0.011005028986167
0.0099207565146261
0.0088510292969301
0.0077876859129384
0.0067267584498611
0.0056686318396376
0.0046154566929038
0.0035691775730766
0.00253109177694
0.0015022240969623
0.00048363737955668
-0.00052354361535274
-0.0015181875635734
-0.0024991530608753
-0.0034652570012199
-0.0044152731080732
-0.0053479751506721
-0.0062621920751146
-0.0071568192883996
-0.0080307850478852
-0.0088830031418471
-0.0097123807754967
-0.010517647663995
-0.011298277414294
-0.012053430410123
-0.012782266073155
-0.013484031369818
-0.014158072695305
-0.014803850969183
-0.015420921676112
-0.01600892882509
-0.016567565772805
-0.017096618204902
-0.017595904185453
-0.018065378091098
-0.018504960056293
-0.018914791772332
-0.019294845957058
-0.019645512319367
-0.019966741793103
-0.020259243189445
-0.020522727478792
-0.020758220942034
-0.020964178160094
-0.021140790519935
-0.021278465776223
-0.021361754227767
0.015384117228911
0.014205106459539
0.012968137002091
0.011738648579721
0.010536296259833
0.0093543358870314
0.0081816968793404
0.007012950370509
0.0058484098190401
0.0046906873690133
0.0035420868786564
0.0024040124694387
0.0012774711126761
0.00016351210238474
-0.00093671698779164
-0.0020220413388868
-0.0030912687043715
-0.0041431643040611
-0.0051764523419721
-0.0061898557005683
-0.0071821448080882
-0.0081521466516303
-0.0090987134104724
-0.010020673882605
-0.010916857069555
-0.011785818376478
-0.012627168917198
-0.013440058220965
-0.014223604532018
-0.014977019541887
-0.015699621199649
-0.016390847113677
-0.017050227019821
-0.017677383287026
-0.018271985602027
-0.018833808615032
-0.019362649801192
-0.019858465812431
-0.020321151586452
-0.020750876939544
-0.021147573541598
-0.021511705871959
-0.021843133343332
-0.022142726716512
-0.022409971882661
-0.022646207209526
-0.022849213386525
-0.023019515358633
-0.023144688300147
-0.023206478845871
0.016628169457286
0.015320102369194
0.013938668046599
0.01256879266965
0.011235369634457
0.0099290825453545
0.0086353033209773
0.0073468799318824
0.0060641036165872
0.0047901972930623
0.0035279301077767
0.0022788419513568
0.0010439061000416
-0.00017586194262412
-0.0013792964092854
-0.0025651662015761
-0.0037322036359205
-0.0048790933263455
-0.0060044834860268
-0.0071070282236037
-0.0081854398241256
-0.0092385041556745
-0.010265054623003
-0.011263879012256
-0.01223367241866
-0.013172103076888
-0.014079702862145
-0.01495555460902
-0.015798640307335
-0.016608086271039
-0.017383148893791
-0.018123215528395
-0.01882777084161
-0.019496409385731
-0.020128779406009
-0.020724650730576
-0.021283802519835
-0.021806197033034
-0.022291701793649
-0.022740518856025
-0.023152527635188
-0.023528277040709
-0.023867500548575
-0.024171264342621
-0.024438739159313
-0.024671684474897
-0.024867015378169
-0.025025881102543
-0.025132561581538
-0.025166266047913
0.018019880468044
0.016570404597793
0.015028760445476
0.013503542061755
0.01202574961877
0.010582788209501
0.0091557330097858
0.0077354305624368
0.0063222150737339
0.0049200859206061
0.0035323910702452
0.0021608414016013
0.00080637506238568
-0.00053002433230143
-0.0018471588450415
-0.0031437246963113
-0.0044183670858035
-0.0056696805617682
-0.0068962239863457
-0.0080965644864068
-0.0092693405925854
-0.010413308790573
-0.011527400496615
-0.01261071977282
-0.013662944401801
-0.014674871894887
-0.015654053360505
-0.016598203040934
-0.017505700319856
-0.018375491684011
-0.019206753175863
-0.019998823999976
-0.020751151414795
-0.021463309155804
-0.022134923079714
-0.022765753194413
-0.023355549989264
-0.023904270833682
-0.024411742688246
-0.024878186255864
-0.025303414580784
-0.02568805140258
-0.026031683729892
-0.026335591448283
-0.026598572899964
-0.026822920681326
-0.027004498200365
-0.027145411076062
-0.027226064547753
-0.027223807943048
0.019569197575238
0.017965895498953
0.016247772494106
0.0145519224132
0.012916325379515
0.011324196505616
0.009751469179762
0.0081867324355848
0.0066304906201722
0.005087722961015
0.003562468243685
0.0020566152545386
0.00057103567882121
-0.00089332519284488
-0.002335201460421
-0.0037531596346812
-0.0051457081495019
-0.0065113207618879
-0.007848447669506
-0.0091555364803416
-0.010431060235513
-0.011673498252785
-0.012881268968908
-0.014052457421292
-0.015184255490095
-0.016286223865856
-0.017346716177819
-0.018365923650937
-0.019343147991951
-0.020277645535264
-0.021168712769604
-0.022015721746295
-0.022818112560208
-0.023575447124066
-0.024287321633107
-0.024953478772342
-0.025573627074999
-0.026147711211331
-0.026675505024313
-0.027157234865781
-0.027592642705369
-0.027982406665027
-0.028325980238557
-0.028624836851574
-0.02887741016324
-0.029086556767823
-0.029246990824581
-0.029362022077727
-0.029407731615133
-0.0293603972581
0.021286093942016
0.019516572813436
0.017605268340101
0.01572325433772
0.013916353591911
0.012162467375702
0.010431428739508
0.0087093296414176
0.006997039032993
0.0053007737251067
0.003625402086699
0.0019730094655188
0.00034436977660365
-0.0012596370867157
-0.0028376806072225
-0.0043881803247991
-0.0059094786427436
-0.0073998970420072
-0.0088577541299106
-0.010281379105953
-0.011669137546044
-0.013019439955755
-0.014330734909865
-0.015601623344826
-0.016830977858366
-0.018018583723619
-0.019161802703386
-0.020259354778307
-0.021310071978033
-0.022312879603607
-0.023266900033509
-0.02417141407226
-0.025025790901755
-0.025829548273624
-0.026582226796244
-0.027283539647286
-0.027933131580535
-0.028530930940255
-0.029076636880005
-0.029570478205896
-0.030012111782193
-0.030402241988972
-0.03074021034984
-0.031027591093261
-0.031262545232085
-0.031448346883368
-0.031578702781056
-0.031658111980295
-0.031658335607659
-0.031555062099746
0.023179288012459
0.021231446610342
0.019110172369196
0.017026528309369
0.015034951360328
0.013106720974988
0.011204563663643
0.0093118829732148
0.007430174767753
0.0055671865451631
0.0037287396988157
0.0019171098934409
0.00013296078360786
-0.0016228605464819
-0.0033489112570226
-0.005043436899879
-0.006704610207139
-0.0083305998048874
-0.0099195790840227
-0.011469729954076
-0.012979271946101
-0.014446489995875
-0.015869748690015
-0.017247591879815
-0.018578618389025
-0.019861293512795
-0.021093939187511
-0.022275289603439
-0.023404022673058
-0.024478899916705
-0.025498910439233
-0.026463237042246
-0.0273711586676
-0.028222129371676
-0.029015615480691
-0.029751291185823
-0.030428716108597
-0.031047806669742
-0.031608149321835
-0.03211000161151
-0.03255287463709
-0.032937533741749
-0.033263160163623
-0.033531389299539
-0.03374019394741
-0.033893006052164
-0.033982869164069
-0.034015051148322
-0.033957553237862
-0.033785417758092
0.025255531791734
0.023117902953473
0.020770236593984
0.018470057889039
0.016280909704007
0.014165910600932
0.012079735080263
0.010003046404757
0.0079383193560813
0.0058951538984988
0.0038804196733272
0.0018965232652677
-5.6027313809361e-05
-0.0019763744787222
-0.0038628661570799
-0.005713482677187
-0.0075261676129828
-0.0092989038345155
-0.011029698566549
-0.012716567299617
-0.014357556097591
-0.015950781093509
-0.017494423681048
-0.018986823368038
-0.020426383956063
-0.02181132020842
-0.023139758437496
-0.024410338089781
-0.025621679515805
-0.026772396377891
-0.027861326391189
-0.02888754336989
-0.029850238599188
-0.030748784846989
-0.031582565805165
-0.032351195501993
-0.033054143599903
-0.033691310438549
-0.034262137812918
-0.03476695822979
-0.035205022300233
-0.035577318787889
-0.03588262931619
-0.036122917012649
-0.036295733874766
-0.036404725637319
-0.036442467494131
-0.036414329658979
-0.036285458178437
-0.036029531713394
0.027520291503998
0.025181671827296
0.022591610091967
0.02006081742305
0.017662040597068
0.01534828076617
0.013065234378166
0.010790995670638
0.0085295399514243
0.0062926604726576
0.0040883072211542
0.0019189270925385
-0.00021515619890804
-0.0023130195132319
-0.0043727200856998
-0.0063918996667272
-0.0083682098127959
-0.010299390329679
-0.012183228084816
-0.014017521441487
-0.015800092008942
-0.017528835769598