/*--------------------------------*- C++ -*----------------------------------*\
| =========                 |                                                 |
| \\      /  F ield         | OpenFOAM: The Open Source CFD Toolbox           |
|  \\    /   O peration     | Version:  2112                                  |
|   \\  /    A nd           | Website:  www.openfoam.com                      |
|    \\/     M anipulation  |                                                 |
\*---------------------------------------------------------------------------*/
FoamFile
{
    version     2.0;
    format      ascii;
    arch        "LSB;label=32;scalar=64";
    class       surfaceScalarField;
    location    "3";
    object      phi;
}
// * * * * * * * * * * * * * * * * * * * * * * * * * * * * * * * * * * * * * //

dimensions      [0 3 -1 0 0 0 0];

oriented        oriented;

internalField   nonuniform List<scalar> 
43645
(
0.39512424878641
-5.3757624964292e-06
0.39514001298935
-1.5764250118785e-05
0.39516596586373
-2.5952925395523e-05
0.39520213443236
-3.616862146483e-05
0.39524871440188
-4.658002279377e-05
0.39530586908144
-5.7154732642975e-05
0.39537359305729
-6.7724028322911e-05
0.39545168110012
-7.8088094649648e-05
0.39553974448852
-8.8063439434174e-05
0.39563725543477
-9.751099660385e-05
0.39574362880641
-0.00010637342121653
0.39585830695884
-0.00011467820136039
0.39598076018583
-0.00012245327515268
0.39611045720796
-0.00012969706969792
0.39624684346481
-0.00013638630367494
0.39638944039237
-0.00014259697384439
0.39653788194778
-0.00014844160098009
0.39669196231179
-0.00015408040908965
0.3968513538269
-0.00015939155952885
0.39701559298262
-0.00016423919971031
0.39718377863807
-0.0001681856988291
0.39735522157401
-0.0001714429789643
0.39752918187603
-0.00017396034445799
0.39770630337205
-0.00017712153816267
0.39788725455791
-0.00018095122744626
0.39807508621426
-0.00018783169769239
0.39827114215234
-0.0001960559788797
0.39848011172552
-0.00020896961321421
0.39870098907604
-0.00022087738920139
-0.00023817646613303
0.3989391655032
0.37294761451368
-1.0435605200029e-05
0.37296258502249
-3.0734833653127e-05
0.37298736953957
-5.0737518651557e-05
0.37302201860989
-7.0817768107856e-05
0.37306675323228
-9.1314720855133e-05
0.37312176167799
-0.00011216325313056
0.3731870514473
-0.00013301387131826
0.37326242454888
-0.00015346126893152
0.37334751245529
-0.00017315141741802
0.37344182233196
-0.00019182094391188
0.37354478109572
-0.00020933225450458
0.37365580857365
-0.0002257057479297
0.37377436898337
-0.00024101375243303
0.37389997796976
-0.00025530612282291
0.37403213430177
-0.00026854270138998
0.37417034970094
-0.00028081243799078
0.37431418405831
-0.00029227602237686
0.37446336921263
-0.00030326562682807
0.37461760906546
-0.00031363147492016
0.37477654328446
-0.00032317348078563
0.37493935411025
-0.00033099658593845
0.37510531540306
-0.00033740433272759
0.37527355625396
-0.0003422012556097
0.37544454971716
-0.00034811506133802
0.3756189047858
-0.0003553063554157
0.37579970739355
-0.00036863436455672
0.37598849889344
-0.00038484753726884
0.37619012163562
-0.00041059241292269
0.37640377874735
-0.00043453455593221
-0.00046931764518697
0.37663491987022
0.35201592855893
-1.5466716346265e-05
0.3520307424702
-4.5548825852045e-05
0.35205520147924
-7.5196609096971e-05
0.35208937721615
-0.00010499358593825
0.35213351554618
-0.00013545313067423
0.35218782584864
-0.00016647363425113
0.35225233337122
-0.00019752147122987
0.35232686029268
-0.00022798826659941
0.35241106274139
-0.00025735394103549
0.35250446688074
-0.00028522515709758
0.35260650967304
-0.00031137511932508
0.35271661453161
-0.00033581067801413
0.3528342410181
-0.00035864030911282
0.35295889056877
-0.0003799557427306
0.35309004799849
-0.00039970019909074
0.35322722372214
-0.00041798822877093
0.3533699830247
-0.0004350353908858
0.35351806163089
-0.0004513442982652
0.35367116238781
-0.00046673229601325
0.35382893974232
-0.00048095089892886
0.35399059143297
-0.00049264833925622
0.35415540215233
-0.00050221511435447
0.35432245320821
-0.00050925237288541
0.35449216456896
-0.00051782648321702
0.35466502995598
-0.00052817180277316
0.35484411916644
-0.000547723635192
0.35503085154225
-0.00057157997254196
0.35523019325621
-0.00060993418546188
0.35544110543226
-0.0006454467878256
-0.00069748633103435
0.3556692740606
0.33225904653657
-2.0469361651212e-05
0.33227379521916
-6.0297580860994e-05
0.33229816359244
-9.9565055433424e-05
0.33233224924138
-0.00013907930759181
0.33237633070916
-0.00017953467017249
0.33243064626173
-0.0002207892575071
0.3324952432723
-0.00026211855120808
0.33256996170065
-0.0003027067632675
0.33265446986962
-0.00034186217699275
0.33274830321541
-0.00037905856881077
0.33285090565658
-0.00041397762505102
0.33296169832803
-0.00044660341298823
0.33308012335958
-0.00047706540284942
0.33320566245304
-0.00050549489741779
0.33333779734124
-0.00053183514724633
0.33347605756932
-0.00055624851599471
0.33362002614211
-0.00057900402165723
0.33376944253062
-0.00060076074413993
0.33392399617662
-0.00062128599834632
0.33408334340626
-0.0006402981844744
0.3342466879213
-0.00065599290932087
0.33441333406417
-0.00066886131199723
0.3345823244992
-0.00067824286193888
0.33475404100737
-0.00068954304531828
0.33492883479651
-0.00070296564520146
0.33510975128127
-0.0007286401732812
0.33529799712641
-0.00075982587047833
0.33549871012477
-0.00081064723598745
0.3357104618423
-0.00085719855519482
-0.00092654588064064
0.33593952134017
0.3136110586864
-2.5470733635257e-05
0.3136258251422
-7.506410573351e-05
0.31365024580398
-0.00012398578678662
0.31368445045646
-0.00017328402923097
0.31372875675975
-0.00022384104154911
0.31378344360161
-0.00027547616637146
0.31384859667548
-0.0003272716907315
0.313924083222
-0.00037819337427376
0.31400958780108
-0.00042736681910573
0.31410465702193
-0.00047412785153028
0.31420873926407
-0.0005180599275753
0.31432124706634
-0.00055911127449003
0.31444159778871
-0.00059741618296918
0.31456924465576
-0.00063314182118474
0.31470364786482
-0.00066623841161478
0.31484432837222
-0.00069692907782752
0.31499086126211
-0.00072553696472555
0.31514298571846
-0.00075288525301449
0.31530039309962
-0.000778693430949
0.31546277032706
-0.00080267546293529
0.31562933579592
-0.00082255842832225
0.31579941441405
-0.00083893998007464
0.31597198434217
-0.0008508128393185
0.31614740734879
-0.00086496610123508
0.31632592600794
-0.00088148435313152
0.3165106825123
-0.00091339672666361
0.31670278777609
-0.00095193118293722
0.31690765564088
-0.0010155151491003
0.31712351246515
-0.0010730554258178
-0.0011601516619756
0.3173571181978
0.29600970750367
-3.0476440886869e-05
0.29602451194287
-8.9868611812204e-05
0.29604902203024
-0.00014849594141242
0.29608340773769
-0.00020766980345478
0.29612803715586
-0.00026847052537722
0.29618323828169
-0.00033067735676308
0.29624913010107
-0.00039316357324503
0.29632560063956
-0.00045466397469263
0.29641234843086
-0.00051411467080287
0.29650893081534
-0.00057071029518714
0.29661480368298
-0.00062393285279501
0.29672938353683
-0.00067369118471458
0.2968520833359
-0.00072011603683378
0.29698234743647
-0.00076340597544039
0.29711962867336
-0.00080351970071485
0.29726345483574
-0.00084075529148726
0.29741341221594
-0.00087549439488612
0.29756925873874
-0.00090873182510725
0.29773068352255
-0.00094011826293272
0.29789738314242
-0.00096937513057533
0.29806856136205
-0.00099373669484645
0.2982435897575
-0.0010139684222871
0.29842143262326
-0.0010286557511945
0.29860251183571
-0.0010460453599505
0.29878692323702
-0.0010658958002709
0.29897776863003
-0.0011042421659017
0.29917578712
-0.0011499497188989
0.2993863329879
-0.0012260610628323
0.29960715460966
-0.0012938770916903
-0.001398215735233
0.2998452186361
0.27939623264483
-3.5474627522579e-05
0.27941104308751
-0.00010467911941692
0.27943559175372
-0.00017304467279164
0.27947009226157
-0.00024217037594865
0.27951496664292
-0.0003133449701961
0.27957059286005
-0.00038630363623999
0.27963713791138
-0.0004597086854362
0.2797145282512
-0.00053205437412458
0.27980248559141
-0.00060207206902066
0.27990058133287
-0.00066880609336508
0.28000828384695
-0.00073163542189881
0.28012501474612
-0.00079042213764827
0.28025017187897
-0.00084527322175049
0.28038316754511
-0.00089640169249634
0.28052342431752
-0.00094377652245639
0.28067047150875
-0.00098780253109545
0.28082391873684
-0.0010289416699516
0.28098354931279
-0.001068362447352
0.28114904101247
-0.0011056100077472
0.28132008734131
-0.001140421504163
0.28149590810023
-0.0011695574976384
0.2816759921378
-0.0011940525036523
0.28185939703675
-0.0012120606933291
0.28204664213492
-0.0012332905015549
0.28223762134125
-0.0012568750496719
0.28243521627089
-0.0013018371391449
0.28263949452493
-0.0013542280163872
0.28285565263987
-0.0014422192212499
0.28308063716897
-0.0015188616627348
-0.0016398098601753
0.28332223124892
0.26371517438645
-4.0439624077531e-05
0.26372991973096
-0.00011942452699998
0.26375439246529
-0.0001975174703574
0.2637888528043
-0.00027663077766457
0.2638337774906
-0.00035826971800965
0.26388960258298
-0.00044212878903048
0.26395654066283
-0.00052664682421154
0.26403455035302
-0.00061006412200197
0.26412337736735
-0.0006908991394046
0.2642226129199
-0.00076804170066032
0.26433174016495
-0.00084076271996031
0.26445019216332
-0.00090887418773408
0.26457737156828
-0.00097245267669248
0.26471269328571
-0.0010317234587351
0.26485558536496
-0.0010866686488688
0.26500559635002
-0.0011378135623549
0.26516235715812
-0.0011857025227965
0.26532567755234
-0.0012316828856279
0.26549524815326
-0.0012751806515249
0.26567079550671
-0.0013159689000972
0.26585156612864
-0.0013503281611266
0.26603712052249
-0.0013796069390216
0.26622653302046
-0.0014014732321831
0.26642036836199
-0.0014271258842446
0.2666183954292
-0.0014549021576672
0.26682346954904
-0.0015069113003286
0.26703529848586
-0.0015660569943933
0.26725918549072
-0.0016661062673576
0.26749132746499
-0.0017510036768277
-0.0018887458644008
0.26774026342618
0.24891418847479
-4.5335467036909e-05
0.2489287639717
-0.00013400008492094
0.24895298889515
-0.00022174245491032
0.24898717138601
-0.00031081332907804
0.2490318487059
-0.00040294709726929
0.24908751098561
-0.00049779112703997
0.24915441576005
-0.00059355165546162
0.24923256071903
-0.00068820913657802
0.24932172881366
-0.00078006728796576
0.24942154535301
-0.00086785829264508
0.24953151818035
-0.0009507355981796
0.24965109598904
-0.0010284520460052
0.24977969012414
-0.0011010468596033
0.24991672114751
-0.0011687545287417
0.25006161648888
-0.001231564035203
0.25021393125078
-0.0012901283682463
0.25037331529001
-0.0013450866045421
0.2505396312821
-0.0013979989195448
0.25071262092846
-0.0014481703384873
0.2508920687053
-0.0014954167171762
0.25107721855546
-0.0015354780505811
0.25126767181858
-0.0015700602414131
0.25146249706511
-0.0015962985173294
0.25166241270871
-0.0016270415667634
0.2518671867091
-0.0016596761965829
0.25207983513423
-0.0017195597645567
0.25229975183726
-0.0017859737363211
0.25253222663706
-0.0018985811061511
0.25277263100629
-0.0019914080837135
-0.0021459146488474
0.25302979974975
0.234943872268
-5.0120231343763e-05
0.23495815578755
-0.00014828366349957
0.23498193218323
-0.00024551890967906
0.2350155575493
-0.00034443875372144
0.23505962422794
-0.00044701383333703
0.23511468014148
-0.00055284709699693
0.23518103216916
-0.00065990373811295
0.23525872061467
-0.0007658976358974
0.23534756531382
-0.00086891203929298
0.23544722286244
-0.0009675158922005
0.23555722753942
-0.0010607403243416
0.23567705234333
-0.0011482768978582
0.23580613116908
-0.0012301257315188
0.23594390632936
-0.0013065297340384
0.2360898223595
-0.0013774801087008
0.23624345948987
-0.0014437655410133
0.2364045067982
-0.0015061339537927
0.23657289097173
-0.0015663831333119
0.23674840966122
-0.0016236890669654
0.23693090041032
-0.0016779075049033
0.23711962605746
-0.0017242037353752
0.23731426015409
-0.0017646943756512
0.23751391910578
-0.0017959575059151
0.23771948719983
-0.0018326096979808
0.2379306686765
-0.0018708577099565
0.23815057657939
-0.0019394677046557
0.23837805686832
-0.0020134540621665
0.2386184860497
-0.0021390103244794
0.2388661490171
-0.0022390710867218
-0.0024104149582044
0.2391306492875
0.22175759828235
-5.474877792749e-05
0.2217714561458
-0.00016214158382348
0.22179456369233
-0.00026862651310264
0.22182732451401
-0.00037719963181693
0.22187038405244
-0.00049007342709565
0.22192434208368
-0.00060680518261792
0.22198955368253
-0.00072511538995732
0.22206609940583
-0.0008424434110916
0.22215383721905
-0.0009566499028346
0.22225246577406
-0.001066144496333
0.22236156156345
-0.0011698361611508
0.22248063430831
-0.0012673496889421
0.22260914593196
-0.001358637399661
0.22274656542755
-0.0014439492730209
0.22289237112654
-0.0015232858494278
0.22304619059667
-0.0015975850519865
0.22320776113964
-0.0016677045361201
0.22337705705522
-0.0017356790876069
0.22355392021115
-0.0018005522603637
0.22373826210631
-0.0018622494371816
0.22392944079734
-0.0019153824625225
0.22412726434272
-0.0019625179571096
0.22433092108533
-0.001999614283857
0.22454136740604
-0.0020430560542804
0.2247581505783
-0.0020876409172684
0.22498440990425
-0.0021657270661178
0.22521852553464
-0.00224756972769
0.22546623785232
-0.0023867226772632
0.22572092897671
-0.0024937622448935
-0.0026828860392229
0.22599340002065
0.20931135926068
-5.9176140811657e-05
0.20932465567739
-0.00017543805530513
0.20934687153456
-0.00029084242507006
0.20937845449346
-0.00040878264510034
0.20942009791657
-0.00053171690356346
0.20947244884967
-0.00065915616823079
0.2095359056863
-0.00078857227779473
0.20961059124958
-0.00091712902457265
0.20969640706784
-0.0010424657697766
0.20979309895071
-0.0011628364267991
0.20990029181401
-0.0012770290703902
0.21001753750139
-0.0013845954211451
0.21014433092863
-0.0014854308700538
0.21028017596041
-0.0015797943469259
0.21042459910961
-0.0016677090391504
0.21057728951396
-0.00175027549601
0.21073804163636
-0.0018284566967329
0.21090688112133
-0.0019045186101831
0.21108369967226
-0.0019773708476603
0.21126850336455
-0.0020470531654887
0.21146076984287
-0.0021076489758528
0.21166047379303
-0.0021622219422186
0.2118668843163
-0.0022060248412874
0.21208103709741
-0.0022572088697415
0.21230233549407
-0.0023089393476876
0.21253394624016
-0.0023973378463369
0.21277390739926
-0.0024875309204305
0.21302826660202
-0.002641081913532
0.21328976498084
-0.0027552606558497
-0.0029633332911873
0.21357021219744
0.19756362028575
-6.33599466571e-05
0.19757622720429
-0.00018804502646061
0.19759733897349
-0.00031195424695014
0.19762744377544
-0.00043888749936553
0.19766727545605
-0.00057154863555192
0.19771752265704
-0.00070940341984913
0.19777862472701
-0.00084967439716509
0.1978507446619
-0.00098924900796504
0.19793382668003
-0.001125547834979
0.19802766492095
-0.0012566747137932
0.19813193609304
-0.0013813002869802
0.19824623986607
-0.001498899237655
0.19837011532856
-0.0016093063744224
0.19850311226009
-0.001712791319376
0.1986448155282
-0.0018094123466604
0.19879498058492
-0.0019004405913316
0.19895346942168
-0.0019869455706949
0.19912037055352
-0.0020714197786531
0.19929564343189
-0.0021526437614454
0.19947939819531
-0.0022308079639929
0.19967123793499
-0.0022994887496107
0.19987131187556
-0.0023622959167958
0.2000789918507
-0.0024137048496293
0.2002954371501
-0.0024736542024958
0.20051996390511
-0.0025334661354045
0.20075578960201
-0.0026331635762231
0.20100065773604
-0.0027323990868735
0.20126081756432
-0.002901241774016
0.20152844791036
-0.0030228910326704
-0.0032510219743175
0.20181613655959
0.18647517985009
-6.7262474804641e-05
0.18648698075899
-0.00019984598593164
0.18650679776778
-0.00033177130639351
0.18653515310065
-0.00046724288262041
0.18657281267411
-0.00060920825853317
0.1866204975362
-0.00075708833081214
0.18667868185066
-0.0009078587593642
0.18674756591429
-0.0010581331185369
0.18682713721475
-0.0012051191810495
0.18691723958106
-0.0013467771247922
0.18701760457557
-0.0014816653247103
0.18712788519322
-0.0016091798975933
0.18724767397293
-0.0017290951949161
0.18737657413702
-0.0018416915233784
0.18751423751543
-0.0019470757635247
0.18766048760487
-0.0020466907184964
0.18781526351213
-0.0021417215143521
0.18797871722481
-0.0022348735271783
0.18815089240169
-0.002324818972998
0.18833200009189
-0.0024119156885463
0.18852178449446
-0.0024892731855406
0.18872056791391
-0.0025610793694938
0.18892785313279
-0.0026209901009458
0.18914494619367
-0.0026907472959007
0.189371125513
-0.0027596454865718
0.18960967796724
-0.0028717160624775
0.18985809714807
-0.0029808182990531
0.190122786402
-0.0031659310589721
0.19039542768132
-0.0032955323415685
-0.0035448684367641
0.19068927411123
0.1760090397227
-7.085348356919e-05
0.17601993573886
-0.00021074205067224
0.17603829592186
-0.00035013153810631
0.17606466912972
-0.00049361613897723
0.17609984434274
-0.00064438351927379
0.17614456541527
-0.00080180945049271
0.17619933355379
-0.00096262694398532
0.17626438311279
-0.0011231827229215
0.17633974447686
-0.0012804805892426
0.1764253101941
-0.0014323428853145
0.17652086752135
-0.0015772226938628
0.176626125921
-0.0017144383382874
0.17674073566381
-0.0018437049773616
0.17686435713138
-0.0019653130297894
0.17699671188444
-0.0020794305540565
0.17713769214259
-0.0021876710134389
0.17728732230506
-0.002291351712352
0.17744582030426
-0.0023933715613989
0.17761333582244
-0.0024923345250787
0.17779017163815
-0.0025887515378165
0.17797624323426
-0.0026753448142428
0.1781720187155
-0.0027568548831919
0.17837717437301
-0.0028261457900815
0.17859314951155
-0.0029067224660938
0.17881922635165
-0.0029857223576019
0.17905878070415
-0.0031112704459835
0.17930908677608
-0.0032311244012558
0.17957668516747
-0.0034335294802063
0.17985288194029
-0.0035717291427305
-0.0038434181791238
0.1801514316515
0.16613027795816
-7.4109505922442e-05
0.16614019481589
-0.00022065895512624
0.16615697184617
-0.00036690861528139
0.16618117743648
-0.00051782177599354
0.1662136141459
-0.00067682027469222
0.16625503980474
-0.00084323515478889
0.16630597662433
-0.0010135638080337
0.1663666890458
-0.0011838951881537
0.16643724457647
-0.0013510361624691
0.16651758203197
-0.0015126803825597
0.16660754098373
-0.0016671816860515
0.16670688711796
-0.0018137845121301
0.16681533127747
-0.0019521491751584
0.16693259677053
-0.0020825785603804
0.16705847675483
-0.0022053105746122
0.16719293444678
-0.0023221287410011
0.16733607714489
-0.0024344944448849
0.16748819363235
-0.0025454880827744
0.16764954690488
-0.0026536878304452
0.16782053303062
-0.0027597376960544
0.16800126054565
-0.0028560723608018
0.16819231094001
-0.0029479053088866
0.16839358465446
-0.0030274195350269
0.16860659070121
-0.0031197285432863
0.16883068840917
-0.0032098200952295
0.16906931822596
-0.0033499002924103
0.1693195791913
-0.0034813853954213
0.16958815800648
-0.0037021083236886
0.16986625939163
-0.003849830554659
-0.0041448552678344
0.17016769645097
0.15680593388465
-7.7014743079499e-05
0.15681482233196
-0.00022954744755123
0.15682992822314
-0.0003820145517481
0.1568518331975
-0.00053972679542708
0.15688134378873
-0.00070633091027042
0.15691922187413
-0.00088111328395476
0.15696600218806
-0.0010603441647041
0.15702197351196
-0.0012398665540344
0.15708723893854
-0.0014163016298126
0.15716177960561
-0.0015872210895412
0.15724548496441
-0.0017508870834552
0.15733817534904
-0.0019064749345446
0.15743962240228
-0.0020535962648874
0.15754961370957
-0.0021925699034293
0.15766801188973
-0.0023237087893072
0.15779484810527
-0.0024489649904486
0.15793030321929
-0.002569949591683
0.15807473962422
-0.0026899245199715
0.158228529843
-0.0028074780804359
0.15839217988681
-0.0029233877706955
0.15856598721437
-0.0030298797182274
0.15875065075229
-0.0031325688764088
0.1589462962643
-0.0032230650757775
0.15915446148524
-0.003327893792793
0.15937464000815
-0.0034299986458919
0.15961027100368
-0.0035855313155196
0.15985836268937
-0.0037294771078195
0.16012577522312
-0.0039695208835115
0.16040387923544
-0.004127934591559
-0.0044470746498751
0.16070609859057
0.14800489766046
-7.9561514834336e-05
0.14801273178684
-0.00023738161801726
0.14802611705992
-0.00039539986907458
0.14804564103607
-0.00055925081549837
0.14807210537128
-0.00073279528852169
0.14810626637695
-0.00091527433191653
0.14814866319688
-0.0011027410257734
0.14819960203331
-0.0012908054306644
0.14825921745475
-0.001475917090117
0.14832752957501
-0.0016555332476823
0.14840447373765
-0.0018278312826052
0.14848992071124
-0.0019919219437347
0.14858370155474
-0.0021473771427014
0.14868566834956
-0.0022945367318031
0.14879575157469
-0.0024337920467961
0.14891404387966
-0.0025672573271223
0.14904078870453
-0.0026966944471722
0.14917641794354
-0.0028255537890391
0.1493214110883
-0.0029524712542289
0.1494763982648
-0.0030783749757642
0.14964185351002
-0.0031953349910397
0.14981860569994
-0.003309321093539
0.15000695247914
-0.0034114118812812
0.15020846998973
-0.0035294113293807
0.15042273646794
-0.0036442651492169
0.150653236333
-0.0038160312053553
0.15089684741046
-0.0039730882091118
0.15116080574397
-0.0042334792401298
0.15143647899763
-0.0044036078669178
-0.0047477893621078
0.15173719368613
0.13969780534673
-8.1749642707934e-05
0.13970458224935
-0.00024415856508971
0.13971623416483
-0.00040705182920919
0.13973334755688
-0.00057636425162435
0.13975671061354
-0.00075615838809567
0.13978706577752
-0.00094562953773114
0.13982494880811
-0.0011406240967442
0.13987067700506
-0.0013365336667636
0.13992441196853
-0.0015296520911708
0.13998620868452
-0.0017173300000545
0.14005604168016
-0.0018976643131321
0.14013382367932
-0.0020697039767375
0.14021944173449
-0.0022329952303839
0.14031281288083
-0.0023879079098146
0.14041393586982
-0.0025349150662738
0.14052295429789
-0.002676275784979
0.14064015947303
-0.0028138996510152
0.14076603957162
-0.0029514339157082
0.14090118260626
-0.0030876143158954
0.14104635588089
-0.003223548276847
0.14120220256715
-0.0033511817027383
0.14136968935938
-0.0034768079106756
0.14154918972835
-0.0035909122741704
0.14174236023984
-0.0037225818642974
0.14194869772727
-0.0038506026591017
0.14217191572752
-0.0040392492275119
0.14240869539205
-0.0042098678945253
0.14266672850915
-0.0044915123773134
0.14293741659484
-0.004674295971391
-0.0050445239712251
0.14323415118338
0.13185693927839
-8.3584234271143e-05
0.13186267504582
-0.00024989438017075
0.13187261528027
-0.00041699211177796
0.13188733695178
-0.00059108597040094
0.13190760592672
-0.00077642740872062
0.13193414255622
-0.00097216621134487
0.13196747200118
-0.0011739535839715
0.13200791700532
-0.0013769787115412
0.13205566276771
-0.0015773978923557
0.13211079559569
-0.0017724628653652
0.13217332201583
-0.0019601907689754
0.13224318607955
-0.0021395680749569
0.13232032581229
-0.0023101349962641
0.13240472155969
-0.0024723036894241
0.1324964406789
-0.0026266342165094
0.13259566164603
-0.0027754967823434
0.13270270855026
-0.0029209465843914
0.13281810542774
-0.0030668308215938
0.13294255932267
-0.0032120682381205
0.13307698175145
-0.0033579707321936
0.13322218926813
-0.0034963892448548
0.13337925686917
-0.0036338755364173
0.13354854842662
-0.003760203855177
0.13373174175677
-0.0039057752172805
0.13392816871733
-0.0040470296413657
0.13414178921793
-0.0042528697490195
0.13436934613026
-0.0044374248266037
0.13461898789677
-0.0047411541626744
0.13488254169365
-0.0049378497859412
-0.0053349621416664
0.1351729798447
0.12445613596261
-8.5073905838077e-05
0.12446085961724
-0.00025461809033505
0.12446913859632
-0.00042527114762295
0.12448152993818
-0.00060347736809121
0.1244987665128
-0.00079366403721722
0.12452154083837
-0.00099494058872761
0.12455036123733
-0.001202774032484
0.12458554962024
-0.0014121671420033
0.12462731028464
-0.001619158602251
0.12467575701771
-0.0018209096422643
0.12473092283944
-0.0020153566328357
0.12479277564026
-0.0022014209166368
0.12486130002473
-0.0023786594202393
0.12493653299842
-0.0025475367016283
0.12501860679995
-0.0027087080553715
0.12510771129526
-0.0028646013141327
0.12520418892205
-0.0030174242465091
0.12530857216074
-0.003171214094733
0.1254217126182
-0.003325208728802
0.12554465201347
-0.0034809101597006
0.12567842820159
-0.0036301654638648
0.12582412192538
-0.0037795692900227
0.12598211594955
-0.0039181979077667
0.12615389384575
-0.0040775531408244
0.12633870929378
-0.0042318451153486
0.12654058316822
-0.0044547436483086
0.12675635582803
-0.0046531975098656
0.12699525007616
-0.0049800484331942
0.12724967680722
-0.0051922765381869
-0.0056183600759448
0.12753307471823
0.11747070633206
-8.6236517819022e-05
0.11747446124202
-0.00025837306969854
0.11748115476383
-0.00043196474099907
0.11749130930898
-0.00061363198401726
0.11750561583711
-0.00080797063401007
0.11752473660503
-0.0010140614229221
0.11754916317887
-0.0012272006701302
0.11757921203276
-0.0014422160574903
0.11761509738909
-0.001655044018141
0.11765695265718
-0.0018627649681899
0.11770483376828
-0.0020632378002335
0.11775872767447
-0.0022553148778587
0.11781865770874
-0.0024385895083453
0.11788471218066
-0.002613591226357
0.11795708695343
-0.0027810828798783
0.11803597182898
-0.0029434862404039
0.11812171887685
-0.0031031713439803
0.11821482743817
-0.0032643227044756
0.11831629830605
-0.003426679643757
0.11842722881229
-0.0035918407115666
0.11854895002716
-0.0037518867227314
0.11868236629615
-0.0039129856012825
0.11882810784355
-0.0040639394956787
0.1189871417813
-0.0042365871173893
0.11915912995418
-0.0044038333253881
0.11934787443886
-0.0046434881684937
0.11954991603967
-0.0048552391445791
0.11977619834984
-0.0052063307757324
0.12001750745648
-0.0054335856758732
-0.0058982263813559
0.12029737372781
0.11087735916091
-8.7110854589703e-05
0.11088023022065
-0.00026124421702564
0.11088545591031
-0.00043719052111258
0.11089350250101
-0.00062167866448263
0.11090501591943
-0.00081948414000876
0.1109206303677
-0.0010296759563823
0.11094082171343
-0.0012473920985664
0.1109659025601
-0.0014672969848866
0.11099609260974
-0.0016852341466157
0.11103154191773
-0.0018982143536867
0.11107232919892
-0.0021040251575713
0.1111184594575
-0.0023014452117024
0.1111699816437
-0.0024901117686735
0.1112270145169
-0.0026706241729353
0.11128980083427
-0.0028438692694571
0.11135853509145
-0.00301222056892
0.11143359126859
-0.0031782275910334
0.1115154262186
-0.0033461577231834
0.11160518119787
-0.0035164346898208
0.11170392175351
-0.0036905813322323
0.11181334738224
-0.0038613124139361
0.11193392474819
-0.0040335630274089
0.11206692690791
-0.0041969417127689
0.11221202870959
-0.0043816889742814
0.11237061345729
-0.0045624181258348
0.11254472004763
-0.0048175948096258
0.11273330655556
-0.0050438257009384
0.1129466130967
-0.005419637363514
0.11316964639418
-0.0056566190180648
-0.0061756376987965
0.11344705766195
0.10465408659153
-8.7731569652383e-05
0.10465622047065
-0.00026337820205052
0.10466015827552
-0.00044112843410278
0.10466628071213
-0.00062780120828858
0.10467517500604
-0.00082837853913876
0.1046874616185
-0.001041962671805
0.1047036128191
-0.0012635434002023
0.10472392363435
-0.0014876078994927
0.10474861163566
-0.0017099222461302
0.10477785590825
-0.0019274587234544
0.10481177465281
-0.0021379439986778
0.10485040635489
-0.0023400770095536
0.10489381842903
-0.0025335239380413
0.1049421493732
-0.0027189552114388
0.10499567574986
-0.0028973957396951
0.10505459058513
-0.0030711354965068
0.10511924445726
-0.0032428815542542
0.10518999403858
-0.0034169073936838
0.10526803507485
-0.0035944758132091
0.1053544037684
-0.0037769501099251
0.10545130540549
-0.003958214131985
0.10555884928632
-0.0041411069852458
0.10567939563092
-0.0043174881307851
0.10581044873565
-0.0045127421488156
0.10595658923798
-0.0047085586951766
0.10611372589968
-0.0049747315352419
0.10629087794388
-0.0052209778065023
0.10648827790508
-0.0056170373833536
0.10670469523677
-0.0058730364067301
-0.0064337075611905
0.10696276503425
0.098780026799786
-8.8040206896632e-05
0.098781516068999
-0.00026486758906369
0.098784278636427
-0.00044389112086662
0.098788699275354
-0.0006322219657919
0.098795211701998
-0.0008348910827281
0.098804450369349
-0.0010512014547062
0.098816923698572
-0.0012760168437151
0.098832919355774
-0.001503603670431
0.098852596628865
-0.0017295996325083
0.098876106253759
-0.0019509684617461
0.098903601070473
-0.0021654389286576
0.098935159829958
-0.0023716358825005
0.098970856420317
-0.0025692206415297
0.099010835616677
-0.0027589345207834
0.099055441139634
-0.0029420013747875
0.099104971993626
-0.0031206664618937
0.09915983424805
-0.0032977439184321
0.099220252773069
-0.0034773260266868
0.09928721820894
-0.0036614413539876
0.099361564356295
-0.0038512963586135
0.099445845163407
-0.0040424950353557
0.09954038578913
-0.0042356477020584
0.099648919290184
-0.0044260217172152
0.099767439061435
-0.0046312620008638
0.099903937984402
-0.0048450576946982
0.10004543458469
-0.0051162282086403
0.10021591258938
-0.0053914558806844
0.1003835040911
-0.0057846289522185
0.10060108544841
-0.0060906178316169
0.10085608330675
-0.0066887054942681
0.39428951870752
0.0046496467569639
0.38980487708969
0.0044846415803416
0.38548835065209
0.004316526400944
0.38134262927167
0.0041457213438834
0.37737013979586
0.003972489439425
0.3735732052292
0.0037969345299432
0.36995416805765
0.0036190371347029
0.36651546189548
0.0034387061247825
0.36325963857263
0.0032558232852004
0.36018935759921
0.0030702809350521
0.35730735271761
0.0028820048428891
0.35461639303881
0.0026909596392362
0.35211924439658
0.0024971486022199
0.34981862407891
0.0023006202766967
0.34771714701576
0.0021014770216499
0.34581727626948
0.0018998707036862
0.3441213011941
0.0016959750321848
0.34263134895012
0.0014899521995818
0.34134940640435
0.0012819425006898
0.34027730705397
0.0010720993039692
0.33941666179369
0.00086064521311293
0.33876876279239
0.000647898952697
0.33833452659701
0.00043423614592401
0.3381144725102
0.00022005403582368
0.3381081907464
6.2817119190815e-06
0.33831860782833
-0.00021041713540974
0.33874543939859
-0.00042683162462015
0.33938928619807
-0.00064384685541296
0.34025065239013
-0.00086136624878921
0.34132942970863
-0.00107877737664
0.3426245506461
-0.0012951209961854
0.34413387997206
-0.0015093293857879