/*--------------------------------*- C++ -*----------------------------------*\
| =========                 |                                                 |
| \\      /  F ield         | OpenFOAM: The Open Source CFD Toolbox           |
|  \\    /   O peration     | Version:  2112                                  |
|   \\  /    A nd           | Website:  www.openfoam.com                      |
|    \\/     M anipulation  |                                                 |
\*---------------------------------------------------------------------------*/
FoamFile
{
    version     2.0;
    format      ascii;
    arch        "LSB;label=32;scalar=64";
    class       volVectorField;
    location    "3";
    object      U;
}
// * * * * * * * * * * * * * * * * * * * * * * * * * * * * * * * * * * * * * //

dimensions      [0 1 -1 0 0 0 0];

internalField   nonuniform List<vector> 
22000
(
(1.0000011493131 -2.8070087684905e-05 0)
(1.00002866317 -8.2458431838019e-05 0)
(1.0000808912669 -0.00013556514179828 0)
(1.0001585545844 -0.00018873009740094 0)
(1.0002626227302 -0.00024281903554413 0)
(1.0003937762518 -0.00029765902777097 0)
(1.0005520469692 -0.00035243671911039 0)
(1.0007370276981 -0.00040614805954299 0)
(1.0009478448859 -0.00045776306266686 0)
(1.0011831273287 -0.00050652860092294 0)
(1.0014412656851 -0.00055228099775627 0)
(1.0017207830665 -0.0005952968887883 0)
(1.0020205105304 -0.00063564004668275 0)
(1.0023395768551 -0.00067311020796923 0)
(1.0026770639927 -0.00070754817977253 0)
(1.0030314917773 -0.00073956315663299 0)
(1.003400434814 -0.00076997622079176 0)
(1.0037822612551 -0.00079959419225408 0)
(1.0041775372341 -0.00082744113373381 0)
(1.0045876307186 -0.000852518711443 0)
(1.0050104224558 -0.0008726268226885 0)
(1.0054416119786 -0.00088937790596905 0)
(1.005877766751 -0.00090291749405955 0)
(1.0063206266847 -0.0009205444328395 0)
(1.006772441837 -0.00094178695446343 0)
(1.0072386407301 -0.00097852438546542 0)
(1.0077223699386 -0.0010210854225542 0)
(1.0082338131901 -0.0010871928268989 0)
(1.0087754408494 -0.0011468531076078 0)
(1.0093580283712 -0.0012350242522781 0)
(1.0000005669698 -8.2739479035561e-05 0)
(1.0000283020732 -0.00024328791576277 0)
(1.0000812464506 -0.00040027053112672 0)
(1.0001600724455 -0.00055758846360367 0)
(1.0002658322036 -0.00071791567189481 0)
(1.0003993787936 -0.00088078919890812 0)
(1.000560882194 -0.0010435746357489 0)
(1.0007499266255 -0.0012031537595266 0)
(1.0009656465623 -0.0013567124995372 0)
(1.0012067002265 -0.0015021623146125 0)
(1.0014713657657 -0.0016385560443082 0)
(1.0017579934862 -0.0017662173560856 0)
(1.0020652263928 -0.0018857005077836 0)
(1.0023923683848 -0.0019972428790467 0)
(1.0027389351273 -0.0021004479968448 0)
(1.0031034634909 -0.0021960998695044 0)
(1.0034824858464 -0.0022856328513156 0)
(1.0038739175368 -0.0023716750693596 0)
(1.0042786855383 -0.0024528506849348 0)
(1.0046993165796 -0.0025273400880129 0)
(1.0051330553208 -0.0025882377776875 0)
(1.005575732444 -0.0026382891841308 0)
(1.0060223472143 -0.0026764195491251 0)
(1.0064763052256 -0.002723856434055 0)
(1.0069369785127 -0.002781553488339 0)
(1.0074140158986 -0.0028865402743131 0)
(1.0079049886978 -0.0030133305522906 0)
(1.0084304641259 -0.0032129870462968 0)
(1.0089798434068 -0.0033983850824961 0)
(1.009585586313 -0.0036670287096695 0)
(1.0000006021971 -0.00013562429996807 0)
(1.0000296770725 -0.00039911693091131 0)
(1.0000850958747 -0.00065707065476574 0)
(1.0001675236021 -0.00091594106933678 0)
(1.0002780659274 -0.0011802417010238 0)
(1.0004177091519 -0.0014491609465935 0)
(1.0005867202044 -0.00171814223513 0)
(1.0007847201709 -0.0019819441751325 0)
(1.001010854176 -0.0022360576531585 0)
(1.0012637193003 -0.0024771024938999 0)
(1.0015414568343 -0.0027032197949481 0)
(1.0018423709871 -0.0029145791923144 0)
(1.0021650398416 -0.003112143158437 0)
(1.0025089083011 -0.0032966394058548 0)
(1.0028735995092 -0.0034675222940619 0)
(1.0032574319031 -0.0036257988177143 0)
(1.0036559710803 -0.0037734288484303 0)
(1.0040671553296 -0.0039147706856296 0)
(1.0044923133171 -0.0040481246463631 0)
(1.0049350517384 -0.0041710935215317 0)
(1.0053913297591 -0.0042719863441737 0)
(1.0058575209876 -0.0043543475060732 0)
(1.0063265596751 -0.0044152480044632 0)
(1.0068050255665 -0.0044899155555615 0)
(1.0072876424449 -0.0045806659581203 0)
(1.0077910717041 -0.0047509672715492 0)
(1.0083020359049 -0.0049589871813102 0)
(1.0088585702189 -0.005291189991152 0)
(1.009424590303 -0.0056001232233367 0)
(1.0100730205612 -0.0060501885005731 0)
(1.0000006259353 -0.00018803080684763 0)
(1.0000312674953 -0.00055364697715405 0)
(1.0000897295404 -0.00091189195342524 0)
(1.000176775741 -0.0012718744891532 0)
(1.0002936618036 -0.001639967258494 0)
(1.0004415290877 -0.0020149582371768 0)
(1.0006207379984 -0.0023903601321602 0)
(1.0008309586562 -0.0027588198142809 0)
(1.0010713107073 -0.003114079237205 0)
(1.0013403079092 -0.0034513818579579 0)
(1.00163598695 -0.0037679061374544 0)
(1.0019566234685 -0.0040636245826408 0)
(1.0023006303194 -0.0043398061833088 0)
(1.0026674689858 -0.0045976189057299 0)
(1.00305677607 -0.0048364562383831 0)
(1.0034668533745 -0.0050577216250182 0)
(1.0038924945632 -0.005263927841345 0)
(1.0043317822355 -0.0054611053605525 0)
(1.0047860384032 -0.0056471231979053 0)
(1.0052600112665 -0.0058191952777701 0)
(1.0057481117571 -0.0059609573577116 0)
(1.0062479614643 -0.0060769601379312 0)
(1.0067495463022 -0.0061618789547573 0)
(1.0072639060602 -0.0062648456464788 0)
(1.0077789485871 -0.0063884136022903 0)
(1.0083216136704 -0.0066232950839822 0)
(1.0088625885426 -0.0069096495657755 0)
(1.0094650680824 -0.0073723833479445 0)
(1.0100555867401 -0.0077994190099865 0)
(1.0107656069087 -0.0084293543894713 0)
(1.0000006542811 -0.00024024292863328 0)
(1.0000331243681 -0.00070782646576828 0)
(1.0000951523452 -0.0011664405599034 0)
(1.0001876251349 -0.0016279393814494 0)
(1.0003119904616 -0.002100623264327 0)
(1.000469589437 -0.002582870624856 0)
(1.0006609225964 -0.0030661990111503 0)
(1.0008857620006 -0.0035410520925755 0)
(1.0011432253872 -0.0039993328667063 0)
(1.0014317653954 -0.0044348684502301 0)
(1.0017493348646 -0.0048438522434717 0)
(1.0020941536491 -0.0052259722275446 0)
(1.002464368814 -0.0055826497588171 0)
(1.0028594199003 -0.0059154424157683 0)
(1.0032789069901 -0.0062237644725888 0)
(1.0037211151207 -0.0065095674371565 0)
(1.0041799797749 -0.0067759245851385 0)
(1.0046537577532 -0.0070305073815003 0)
(1.0051435532013 -0.0072706377485787 0)
(1.0056554244218 -0.0074932640756583 0)
(1.0061820934314 -0.0076772853031593 0)
(1.006722985358 -0.0078283460163044 0)
(1.0072644496424 -0.0079380781870651 0)
(1.0078228286372 -0.0080696047584441 0)
(1.0083776475259 -0.008224638630645 0)
(1.0089688588383 -0.0085227462891757 0)
(1.0095476228537 -0.00888383676059 0)
(1.0102090426498 -0.0094761269013894 0)
(1.0108324035995 -0.010015512153784 0)
(1.0116240028115 -0.010827050404534 0)
(1.0000006837744 -0.00029241800690148 0)
(1.0000351372697 -0.00086216811710921 0)
(1.0001010537786 -0.0014216432141844 0)
(1.0001994610129 -0.0019855532445461 0)
(1.0003320479391 -0.0025642078209515 0)
(1.000500412416 -0.0031555762138562 0)
(1.0007052078686 -0.0037490912175819 0)
(1.0009463193523 -0.0043328489160839 0)
(1.0012228686658 -0.0048968052116456 0)
(1.0015332234795 -0.0054333477081254 0)
(1.0018752410752 -0.0059376432860214 0)
(1.0022471301623 -0.0064089611279347 0)
(1.0026467971608 -0.0068487069691727 0)
(1.0030736846173 -0.0072588145390847 0)
(1.0035273637474 -0.0076388172117191 0)
(1.0040062041974 -0.0079913502866941 0)
(1.0045033767822 -0.0083200116043918 0)
(1.0050174585847 -0.0086342143164163 0)
(1.0055492191657 -0.0089307900563066 0)
(1.006105978794 -0.0092068056971548 0)
(1.006678542583 -0.0094360957133375 0)
(1.0072683977068 -0.0096254279281795 0)
(1.0078581459623 -0.0097622706223458 0)
(1.0084700638259 -0.0099245996169653 0)
(1.0090746764227 -0.010112469232642 0)
(1.0097258295025 -0.010477029016108 0)
(1.0103525116981 -0.010916078478108 0)
(1.0110841789264 -0.011644267438458 0)
(1.0117458182094 -0.012299669982385 0)
(1.0126290227077 -0.013299081320365 0)
(1.0000007114502 -0.0003445253867489 0)
(1.0000371883177 -0.0010166064493254 0)
(1.000107089497 -0.0016774239137235 0)
(1.0002116033155 -0.0023446825780024 0)
(1.0003526970625 -0.0030308049523273 0)
(1.000532260316 -0.0037333247961297 0)
(1.0007511344361 -0.0044394798986034 0)
(1.0010093698529 -0.0051349044333644 0)
(1.0013061450592 -0.0058075034938978 0)
(1.0016397957068 -0.0064481384344769 0)
(1.0020081174693 -0.0070508943234236 0)
(1.0024093239727 -0.0076145967218148 0)
(1.002841047598 -0.0081405322802444 0)
(1.0033026469862 -0.0086308737843393 0)
(1.0037934615478 -0.0090852202543071 0)
(1.0043119106534 -0.0095071409763119 0)
(1.0048504900151 -0.0099009945331288 0)
(1.0054083381493 -0.010278056426684 0)
(1.0059856223575 -0.010634234153238 0)
(1.0065909771976 -0.010966654912951 0)
(1.0072128790784 -0.011243995923359 0)
(1.0078558892827 -0.011475380112704 0)
(1.0084981092611 -0.011643957934566 0)
(1.0091698846141 -0.011843167175026 0)
(1.0098297504961 -0.01206802582575 0)
(1.0105495770127 -0.012500692000884 0)
(1.0112282830363 -0.013012005738401 0)
(1.0120391109868 -0.013866164697301 0)
(1.0127369816904 -0.014620736406382 0)
(1.0137204582584 -0.015793716995865 0)
(1.0000007354205 -0.00039637389854581 0)
(1.0000391607205 -0.0011705886207768 0)
(1.0001129274512 -0.0019329028517831 0)
(1.0002234061509 -0.0027041586315603 0)
(1.0003728765218 -0.0034989766119461 0)
(1.0005635651732 -0.004314433139726 0)
(1.000796535417 -0.0051354949743284 0)
(1.0010720197189 -0.005945225881972 0)
(1.0013892563317 -0.0067293531562255 0)
(1.0017465517587 -0.0074771483364763 0)
(1.0021416402208 -0.0081816142393343 0)
(1.0025727608765 -0.0088410860885449 0)
(1.0030373003625 -0.0094565395608375 0)
(1.0035346091848 -0.010030243592075 0)
(1.0040638770421 -0.010561930367246 0)
(1.0046237352814 -0.011056402782678 0)
(1.00520605748 -0.011518881701174 0)
(1.0058106183388 -0.011962380205078 0)
(1.006436822141 -0.01238152232917 0)
(1.0070948756403 -0.012773658245316 0)
(1.0077707629616 -0.013102698834148 0)
(1.0084726751574 -0.013380975690506 0)
(1.0091731226411 -0.013586996564574 0)
(1.0099116129937 -0.013829217520627 0)
(1.010632343191 -0.01409477270033 0)
(1.011429386766 -0.014597046808935 0)
(1.0121665790533 -0.015175401862785 0)
(1.0130712261028 -0.016151073476973 0)
(1.0138146994794 -0.016990629975977 0)
(1.0149238190286 -0.018336140419577 0)
(1.0000007530067 -0.00044764830038122 0)
(1.0000409429029 -0.0013231971578293 0)
(1.0001182497541 -0.0021865835052581 0)
(1.0002342374977 -0.0030619160190629 0)
(1.0003915217924 -0.0039661159594214 0)
(1.0005926957018 -0.004895794554889 0)
(1.0008390674697 -0.0058335436660129 0)
(1.0011310783021 -0.0067597405378645 0)
(1.0014680810085 -0.0076578667260823 0)
(1.0018484405222 -0.0085155631357162 0)
(1.0022698956148 -0.0093246568020036 0)
(1.002730734386 -0.010082887160726 0)
(1.003228093687 -0.010790854017342 0)
(1.0037613019385 -0.011450958805178 0)
(1.0043293351651 -0.012063084225904 0)
(1.004931026626 -0.012633333970471 0)
(1.0055576653701 -0.013167800429834 0)
(1.0062097623602 -0.013681494102811 0)
(1.0068859836718 -0.01416785443612 0)
(1.0075982466961 -0.014624780774469 0)
(1.0083300643499 -0.015010963366603 0)
(1.0090932293848 -0.015342079696659 0)
(1.009854438536 -0.015591136913845 0)
(1.0106624914378 -0.015882652780674 0)
(1.0114477292748 -0.0161950056221 0)
(1.0123272329508 -0.01677473035625 0)
(1.01312997799 -0.017426958293884 0)
(1.014138094012 -0.018532665508565 0)
(1.0149364287406 -0.019459524415121 0)
(1.0161846856137 -0.020984146253107 0)
(1.0000007624447 -0.00049795107164096 0)
(1.0000424299206 -0.001473259537135 0)
(1.0001227460119 -0.002436533797742 0)
(1.000243484355 -0.0034152654136127 0)
(1.0004076198404 -0.0044287741750305 0)
(1.0006181407152 -0.0054731889120849 0)
(1.0008766443777 -0.0065286240001463 0)
(1.0011838142435 -0.007572695822243 0)
(1.0015391330322 -0.0085866111696542 0)
(1.0019410496239 -0.0095563324154857 0)
(1.0023873178531 -0.010472432047238 0)
(1.0028762800345 -0.011332044643317 0)
(1.0034048659484 -0.012135406259724 0)
(1.0039724513122 -0.012885006945412 0)
(1.0045778048995 -0.013580726001509 0)
(1.0052200660445 -0.014230011009466 0)
(1.0058900665653 -0.014840043696158 0)
(1.0065892649573 -0.015428257568139 0)
(1.0073153966408 -0.015986760742848 0)
(1.0080822918597 -0.016513788226102 0)
(1.0088706149178 -0.016961998883644 0)
(1.0096966991551 -0.017351122941784 0)
(1.0105204136681 -0.017648576546915 0)
(1.011401912663 -0.017997108593029 0)
(1.0122547595065 -0.018364145360483 0)
(1.0132230346318 -0.019030663249468 0)
(1.0140942756436 -0.019760791517419 0)
(1.0152130564503 -0.020998458380458 0)
(1.0160665393469 -0.022003853349218 0)
(1.017461938028 -0.023700306256393 0)
(1.0000007621824 -0.00054683787668648 0)
(1.0000435285848 -0.0016194541661272 0)
(1.0001261483027 -0.0026805667276026 0)
(1.0002506210101 -0.0037611432201691 0)
(1.0004202917302 -0.0048829783766099 0)
(1.0006385556792 -0.0060417128245159 0)
(1.0009073267244 -0.007214916678552 0)
(1.0012275463906 -0.0083773896236589 0)
(1.0015988425724 -0.0095080403742548 0)
(1.0020197932464 -0.010591143897658 0)
(1.0024882358984 -0.011615978882679 0)
(1.0030026490963 -0.012579006447094 0)
(1.0035598176067 -0.013480007347305 0)
(1.0041591552405 -0.014321537303739 0)
(1.0047991961896 -0.01510351323756 0)
(1.00547951991 -0.01583486708222 0)
(1.0061906803854 -0.016523956002248 0)
(1.0069351712745 -0.017190723898679 0)
(1.0077095388625 -0.017825906437968 0)
(1.0085296243161 -0.018428226361144 0)
(1.009373220002 -0.018944410302049 0)
(1.0102622201307 -0.01939869260193 0)
(1.0111490332273 -0.019752494866802 0)
(1.012106545032 -0.020167145499234 0)
(1.0130285497507 -0.020596530649189 0)
(1.0140895688228 -0.021358123054646 0)
(1.0150297717467 -0.022168395530045 0)
(1.0162654423015 -0.023544028936709 0)
(1.0171750795564 -0.024622108166423 0)
(1.0187315728361 -0.02649831595167 0)
(1.0000007510769 -0.0005938495839722 0)
(1.0000441605987 -0.0017604079365797 0)
(1.0001282275781 -0.0029164000165796 0)
(1.0002551851105 -0.0040963343900363 0)
(1.0004287522161 -0.0053245288384141 0)
(1.0006527379213 -0.0065961400063939 0)
(1.0009293935067 -0.0078861577869615 0)
(1.0012599409971 -0.0091665118901393 0)
(1.001644187207 -0.010413787450398 0)
(1.0020808866725 -0.011610604399438 0)
(1.002568017785 -0.012744967359754 0)
(1.0031042398646 -0.013812605546163 0)
(1.0036862268675 -0.014812748899013 0)
(1.0043134289103 -0.015748043350673 0)
(1.0049841762286 -0.016618580230167 0)
(1.0056985873161 -0.017434927243422 0)
(1.0064471067987 -0.018206561985927 0)
(1.0072333202373 -0.018955866417832 0)
(1.0080525776164 -0.019672192544527 0)
(1.0089227081573 -0.020355217666304 0)
(1.0098188707765 -0.020946053664814 0)
(1.010768723582 -0.021473811068363 0)
(1.011717472518 -0.021892997801209 0)
(1.0127506777985 -0.02238324160867 0)
(1.01374233864 -0.022882618739576 0)
(1.0148976850393 -0.02374697003848 0)
(1.0159089419335 -0.02464124864629 0)
(1.0172662721442 -0.026162641244594 0)
(1.018235909117 -0.027313949586859 0)
(1.0199645511034 -0.02938242977232 0)
(1.0000007279579 -0.00063854146399334 0)
(1.0000442646472 -0.0018947857612175 0)
(1.0001288028437 -0.0031417985533748 0)
(1.0002568120232 -0.0044176606526414 0)
(1.0004323870773 -0.0057492392685601 0)
(1.0006597535933 -0.0071312129759062 0)
(1.0009415138281 -0.0085359723823514 0)
(1.0012791787661 -0.0099325555917303 0)
(1.0016727572851 -0.011295245765062 0)
(1.0021212107906 -0.012605069952511 0)
(1.0026226985382 -0.013848794969896 0)
(1.0031760843417 -0.015021371248564 0)
(1.0037780059166 -0.016121410182089 0)
(1.0044279992356 -0.017151660213292 0)
(1.0051242492654 -0.01811250248445 0)
(1.0058674471274 -0.019016249509253 0)
(1.0066480719053 -0.019873462795062 0)
(1.0074708872826 -0.020708918094865 0)
(1.008330127393 -0.021510572050762 0)
(1.009245646693 -0.022279513469664 0)
(1.0101900995086 -0.022951439227854 0)
(1.011197075391 -0.023560905317846 0)
(1.0122046554481 -0.024054639753416 0)
(1.0133113746328 -0.02463078015218 0)
(1.0143714341961 -0.025209258746269 0)
(1.0156214861193 -0.026185945929705 0)
(1.0167050919418 -0.027170524725557 0)
(1.0181877011559 -0.028846463755806 0)
(1.0192205294262 -0.030073740668807 0)
(1.0211286034448 -0.032346056855248 0)
(1.0000006925734 -0.00068050946961937 0)
(1.0000437994724 -0.0020213616964992 0)
(1.0001277513667 -0.0033546933184062 0)
(1.0002552576661 -0.0047221581006005 0)
(1.0004307827321 -0.0061531748409533 0)
(1.0006589530035 -0.0076419481448232 0)
(1.0009427178453 -0.0091582753159481 0)
(1.0012838719978 -0.010668320683641 0)
(1.0016826527843 -0.012144119410924 0)
(1.0021382547865 -0.013565169862239 0)
(1.0026490726016 -0.014917040700172 0)
(1.0032141952689 -0.0161938621114 0)
(1.0038303300865 -0.017393598462143 0)
(1.004497112821 -0.018519108816533 0)
(1.0052126712051 -0.019571205508276 0)
(1.0059782499135 -0.020564006828623 0)
(1.0067845707738 -0.021509204731379 0)
(1.0076375769799 -0.022433892760736 0)
(1.0085305089504 -0.023324731273513 0)
(1.0094852162328 -0.024184535254121 0)
(1.010471990144 -0.024943871284876 0)
(1.0115305664173 -0.025643227015019 0)
(1.0125918902137 -0.026220952988898 0)
(1.0137679691645 -0.02689391440606 0)
(1.0148928911766 -0.027561843422899 0)
(1.0162357511541 -0.028661850988852 0)
(1.0173904899272 -0.029744892332579 0)
(1.0189992474392 -0.031585302647834 0)
(1.0200966049989 -0.032892822300223 0)
(1.0221880456279 -0.035380687917598 0)
(1.0000006459468 -0.00071940921474051 0)
(1.000042750493 -0.0021390835518343 0)
(1.0001250146481 -0.0035532911486706 0)
(1.0002503915193 -0.0050072296421732 0)
(1.0004237025901 -0.0065328452098438 0)
(1.0006499469224 -0.0081238722336627 0)
(1.0009324088583 -0.0097475486536495 0)
(1.0012731571957 -0.011367214521274 0)
(1.0016726832444 -0.012952721509063 0)
(1.0021304293306 -0.014482100799088 0)
(1.0026450794496 -0.015939779695174 0)
(1.0032159479017 -0.017319065053868 0)
(1.0038399251036 -0.018617299535418 0)
(1.0045167097439 -0.019837456985199 0)
(1.0052445079647 -0.020980938527895 0)
(1.0060249936764 -0.022063655927125 0)
(1.006849461019 -0.023098590547324 0)
(1.0077248509134 -0.02411496551644 0)
(1.0086438318475 -0.025098463397751 0)
(1.0096299386 -0.0260536469338 0)
(1.010651617964 -0.026906474456643 0)
(1.0117545801701 -0.027703542201468 0)
(1.0128629409656 -0.028374528236824 0)
(1.0141023479513 -0.029155138081507 0)
(1.0152866829339 -0.029923106042446 0)
(1.0167180768524 -0.031157814685352 0)
(1.0179405700694 -0.032348296942823 0)
(1.0196732692669 -0.034363603735748 0)
(1.0208347150591 -0.035757083115324 0)
(1.0231098276921 -0.03847231743239 0)
(1.0000005878251 -0.00075496393324296 0)
(1.0000411206205 -0.002247099274599 0)
(1.0001206016003 -0.003736127874675 0)
(1.0002422152104 -0.0052707274283409 0)
(1.0004111166119 -0.0068853177356941 0)
(1.0006326438876 -0.0085731657372312 0)
(1.0009104013745 -0.010299010882767 0)
(1.0012467251128 -0.012023452633034 0)
(1.0016423742051 -0.013714244656746 0)
(1.0020970446152 -0.015348026634348 0)
(1.0026097226472 -0.01690815436303 0)
(1.0031799392768 -0.01838713908463 0)
(1.0038048491231 -0.019781729231714 0)
(1.004484224601 -0.02109501793671 0)
(1.0052164864166 -0.02232910376995 0)
(1.0060036342552 -0.023501671475594 0)
(1.0068378578474 -0.024627159648216 0)
(1.007726766215 -0.025736714577039 0)
(1.0086631144152 -0.026815549303742 0)
(1.0096713702086 -0.027869697338038 0)
(1.0107194273011 -0.028821591993699 0)
(1.0118577374275 -0.029723273914116 0)
(1.0130051613589 -0.030496543444959 0)
(1.0142997153861 -0.031395034860371 0)
(1.0155361550568 -0.032273575417254 0)
(1.0170492692777 -0.033654534608823 0)
(1.0183336683669 -0.034961859253585 0)
(1.0201846630343 -0.037162901140433 0)
(1.0214080443034 -0.038650127650142 0)
(1.0238631609174 -0.041604772013274 0)
(1.0000005192472 -0.0007869711482977 0)
(1.0000389321741 -0.0023447707314454 0)
(1.0001145736396 -0.0039020910627832 0)
(1.0002308390822 -0.0055109931154412 0)
(1.0003931838723 -0.0072082888276999 0)
(1.0006072422393 -0.0089867779266397 0)
(1.0008769083767 -0.01080878397437 0)
(1.0012047635119 -0.012632275626249 0)
(1.0015918339579 -0.014423015234619 0)
(1.002038087967 -0.016156335052836 0)
(1.0025428258861 -0.017814599811355 0)
(1.003105810047 -0.019389571254912 0)
(1.0037245033507 -0.020877441584309 0)
(1.0043988005185 -0.022281437292245 0)
(1.0051273757807 -0.0236044129117 0)
(1.0059125423907 -0.024865826733877 0)
(1.0067474929967 -0.026081668221381 0)
(1.0076403800319 -0.027284955406236 0)
(1.0085843722031 -0.02846083855092 0)
(1.0096044957002 -0.029616685581047 0)
(1.0106690716206 -0.030672439186042 0)
(1.0118322259532 -0.031684614407467 0)
(1.013009339418 -0.032568623443729 0)
(1.0143486874193 -0.033593805597257 0)
(1.0156283522554 -0.034593012986687 0)
(1.0172134038172 -0.036130712959205 0)
(1.0185516685808 -0.037563809835969 0)
(1.0205112256067 -0.039961066671131 0)
(1.0217938724933 -0.041553166963555 0)
(1.0244186299884 -0.044756142135466 0)
(1.0000004415664 -0.00081530882043564 0)
(1.0000362244358 -0.0024316971394163 0)
(1.0001070378282 -0.0040504558860948 0)
(1.0002164599357 -0.0057269038639036 0)
(1.0003702035555 -0.0075001425475114 0)
(1.0005741530177 -0.0093625034700754 0)
(1.0008324559701 -0.011273993588471 0)
(1.0011479077259 -0.01319007785293 0)
(1.0015217877895 -0.015074647001164 0)
(1.0019543502647 -0.016901802218881 0)
(1.0024452073156 -0.018652995473745 0)
(1.0029943600716 -0.020319299637857 0)
(1.0035996002535 -0.021896436613551 0)
(1.0042610148806 -0.023387815416823 0)
(1.0049775444412 -0.024797090284769 0)
(1.005751856563 -0.02614545900275 0)
(1.0065781136151 -0.027450490799575 0)
(1.0074650390751 -0.028747114447614 0)
(1.0084062254123 -0.03002075941076 0)
(1.0094273939674 -0.031280236553291 0)
(1.010497558946 -0.032443646858486 0)
(1.0116743536865 -0.033571407238792 0)
(1.0128703381583 -0.034573393306884 0)
(1.0142426764479 -0.035732703201399 0)
(1.0155549319488 -0.036861603420202 0)
(1.0171989095909 -0.03856462347896 0)
(1.0185813679026 -0.04013180725506 0)
(1.0206340564835 -0.042735365359891 0)
(1.0219732768544 -0.044444772845685 0)
(1.0247480691575 -0.047902013425858 0)
(1.0000003562314 -0.00083993262656921 0)
(1.000033048705 -0.0025077132830129 0)
(1.0000981378819 -0.0041808922703066 0)
(1.0001993496317 -0.0059178891898855 0)
(1.0003426005556 -0.007759973540275 0)
(1.000533977318 -0.0096990054802474 0)
(1.0007778384992 -0.011692783933443 0)
(1.0010771600542 -0.013694417096219 0)
(1.0014334564395 -0.015666074925169 0)
(1.0018472842998 -0.0175807045221 0)
(1.0023185505084 -0.019418900230739 0)
(1.0028474653024 -0.021171083885577 0)
(1.0034321348978 -0.022832629703942 0)
(1.0040729099224 -0.024407215645084 0)
(1.004769043119 -0.025899338342425 0)
(1.0055235992963 -0.027331835066668 0)
(1.0063316178845 -0.028723832488027 0)
(1.0072023743281 -0.030112251754679 0)
(1.008129832761 -0.031483223443429 0)
(1.0091406836614 -0.032847233479301 0)
(1.0102048205171 -0.034120994648563 0)
(1.011383312131 -0.035368418474472 0)
(1.0125865157529 -0.036493893328344 0)
(1.0139782222585 -0.037793437918204 0)
(1.0153116954248 -0.039058335491502 0)
(1.0169966667682 -0.04093463476432 0)
(1.0184143779973 -0.042641461581761 0)
(1.0205371591415 -0.045463232834086 0)
(1.0219288941642 -0.047299263282985 0)
(1.0248312437551 -0.051021160012768 0)
(1.0000002639774 -0.00086086323089465 0)
(1.0000294536467 -0.0025728525249645 0)
(1.0000880268832 -0.0042934130225555 0)
(1.0001798247792 -0.0060838764630718 0)
(1.0003108980948 -0.0079875425536809 0)
(1.0004874776215 -0.0099957903784345 0)
(1.0007140784479 -0.012064316757908 0)
(1.0009938230682 -0.014144032994852 0)
(1.0013284394118 -0.016195576694993 0)
(1.0017188115865 -0.01819082736016 0)
(1.0021651226788 -0.020109555222087 0)
(1.0026677437269 -0.021941536299472 0)
(1.0032250636181 -0.023681959411667 0)
(1.0038377481112 -0.025334869023543 0)
(1.0045054271334 -0.026905642783907 0)
(1.0052315682036 -0.028418516240236 0)
(1.0060119684135 -0.029894156237815 0)
(1.006856332977 -0.031371587945111 0)
(1.0077590337793 -0.032838319755169 0)
(1.0087479389364 -0.034306855085495 0)
(1.0097942725351 -0.035692727050584 0)
(1.010962070186 -0.037063029728507 0)
(1.012160315232 -0.038315352075883 0)
(1.0135564532816 -0.039759406814226 0)
(1.0148974711049 -0.041162563658058 0)
(1.0166030699603 -0.043217312750971 0)
(1.0180418689756 -0.045067631250308 0)
(1.0202107551356 -0.048116266628353 0)
(1.0216452443888 -0.05009160852127 0)
(1.0246543800389 -0.054092717765277 0)
(1.0000001631228 -0.00087818021157246 0)
(1.0000254761402 -0.0026273078534176 0)
(1.0000768376209 -0.0043882754252334 0)
(1.000158188502 -0.0062251215925695 0)
(1.0002756318763 -0.0081830473711219 0)
(1.000435467074 -0.010252949902258 0)
(1.0006423099056 -0.012388523654117 0)
(1.0008993897356 -0.014538638087739 0)
(1.0012086213713 -0.016662592095378 0)
(1.0015712190068 -0.018731272829935 0)
(1.001987637303 -0.020723629172003 0)
(1.0024583547853 -0.022628784081475 0)
(1.0029820530264 -0.024441974400249 0)
(1.0035597079282 -0.026167738097282 0)
(1.0041914253424 -0.027812389220646 0)
(1.0048809336745 -0.029401081014902 0)
(1.0056247411051 -0.030955987763434 0)
(1.0064326030102 -0.032518207501225 0)
(1.0072996645788 -0.034077728938387 0)
(1.0082548108724 -0.03564931279881 0)
(1.0092716292857 -0.037147829762932 0)
(1.0104161223354 -0.038642533386655 0)
(1.0115968620474 -0.04002325876301 0)
(1.0129824728075 -0.041613024927471 0)
(1.0143151586204 -0.04315439585441 0)
(1.0160216742753 -0.04538868893143 0)
(1.0174618683289 -0.047384652772907 0)
(1.0196526157218 -0.050666206674634 0)
(1.0211163180393 -0.052794882280854 0)
(1.0242109913334 -0.057089486316296 0)
(1.000000051807 -0.00089206176516182 0)
(1.0000212045304 -0.0026715430015987 0)
(1.000064803669 -0.0044660728121044 0)
(1.0001348647247 -0.00634216192205 0)
(1.0002374374495 -0.008346855780846 0)
(1.0003788118164 -0.0104706449955 0)
(1.0005637005556 -0.012665342884117 0)
(1.000795422264 -0.014877942963877 0)
(1.0010760544808 -0.017066600955829 0)
(1.0014070735633 -0.019201270446455 0)
(1.0017892053715 -0.021260026686189 0)
(1.0022229569382 -0.023231281274189 0)
(1.0027073792124 -0.025110549139427 0)
(1.0032436347239 -0.026902976894441 0)
(1.0038325466736 -0.028615919817929 0)
(1.0044777978585 -0.03027484246081 0)
(1.0051769907645 -0.031903555493976 0)
(1.0059389643511 -0.033544962766234 0)
(1.0067606483955 -0.035193085877502 0)
(1.0076702972884 -0.036864253016603 0)
(1.0086463144793 -0.038473952848646 0)
(1.0097533101638 -0.040090094829063 0)
(1.0109034471184 -0.041596432527044 0)
(1.012261342376 -0.043325184486379 0)
(1.0135701242442 -0.044999399100418 0)
(1.0152585269532 -0.047407532000855 0)
(1.0166829434279 -0.049547075722138 0)
(1.0188727809941 -0.053065404676432 0)
(1.020350745779 -0.055354942208471 0)
(1.0235087565241 -0.05995287831195 0)
(0.99999993066266 -0.00090284807406363 0)
(1.0000169025484 -0.0027066716033118 0)
(1.0000526146635 -0.0045285091622099 0)
(1.0001109571624 -0.0064369052224149 0)
(1.0001977021816 -0.0084807396469109 0)
(1.000319095346 -0.010650351938168 0)
(1.0004800420827 -0.012895871120327 0)
(1.0006839736129 -0.015162553152626 0)
(1.0009331283686 -0.017407643325247 0)
(1.0012291695956 -0.019600387952933 0)
(1.0015731461557 -0.021718035671811 0)
(1.001965571853 -0.023748215410654 0)
(1.0024059642342 -0.025686854094497 0)
(1.0028953597403 -0.02753973498006 0)
(1.0034354934534 -0.029315284460648 0)
(1.0040294609299 -0.031038513297402 0)
(1.00467688719 -0.032734984249206 0)
(1.0053843246877 -0.034449025876041 0)
(1.006152714329 -0.036180994716802 0)
(1.00700587414 -0.037947667948371 0)
(1.0079326582926 -0.039668114062723 0)
(1.0089872850889 -0.041402279553253 0)
(1.0100983965021 -0.043033158604539 0)
(1.0114072058239 -0.044890268037921 0)
(1.0126850155077 -0.046689972890529 0)
(1.0143259534129 -0.04925903355522 0)
(1.0157364964883 -0.051525760851926 0)
(1.017887321067 -0.05529575973716 0)
(1.0194040527316 -0.057717031123533 0)
(1.0225530315682 -0.062692561341925 0)
(0.99999975939667 -0.00091105265259253 0)
(1.0000127177357 -0.002734598704055 0)
(1.0000410665658 -0.004579152956558 0)
(1.0000880347079 -0.0065147877728969 0)
(1.0001585090267 -0.0085919373196604 0)
(1.0002586410722 -0.010801103142548 0)
(1.0003938658198 -0.013091068164377 0)
(1.0005677759658 -0.0154055764396 0)
(1.0007826225948 -0.017700890241491 0)
(1.0010402250416 -0.019945538763813 0)
(1.0013421366541 -0.022116239285202 0)
(1.0016891067954 -0.024199969866151 0)
(1.0020812258969 -0.026193239443627 0)
(1.0025192047724 -0.028102737862002 0)
(1.0030057853371 -0.029938361396193 0)
(1.0035432467745 -0.031724438832769 0)
(1.0041335222697 -0.033488248255982 0)
(1.0047794067751 -0.035274548453941 0)
(1.0054868946614 -0.037091793221029 0)
(1.0062716170092 -0.038955865715835 0)
(1.0071395878941 -0.040795600042712 0)
(1.0081253259409 -0.042654849553296 0)
(1.0091951564127 -0.044431979727232 0)
(1.0104338016055 -0.046428670901623 0)
(1.0116955947047 -0.04839691812216 0)
(1.0132439313743 -0.051146752717963 0)
(1.0146790489412 -0.053605442835069 0)
(1.0167013542864 -0.057681433016588 0)
(1.018353943366 -0.060257213452721 0)
(1.0213745124332 -0.065957236569339 0)
(0.99999943913582 -0.00091814048358756 0)
(1.0000075593408 -0.0027597086200364 0)
(1.0000285307525 -0.0046264228003971 0)
(1.0000644413592 -0.006590386003261 0)
(1.0001187324731 -0.0087034609676286 0)
(1.0001971764076 -0.010955869463956 0)
(1.0003061731914 -0.013294054258205 0)
(1.0004500121024 -0.015659103528368 0)
(1.0006306609222 -0.01800639551575 0)
(1.0008491530812 -0.020304395187194 0)
(1.0011073402961 -0.022529395170174 0)
(1.0014064857075 -0.024667844861674 0)
(1.0017471742546 -0.026716906514388 0)
(1.0021298037085 -0.028684628890794 0)
(1.0025576745841 -0.030583390018072 0)
(1.0030336576778 -0.032437731727122 0)
(1.0035622597362 -0.034277590996509 0)
(1.0041444622195 -0.036147606578391 0)
(1.0047879697151 -0.038064654203028 0)
(1.005499912671 -0.040041055621254 0)
(1.0062990761911 -0.042020052548733 0)