/*--------------------------------*- C++ -*----------------------------------*\
| =========                 |                                                 |
| \\      /  F ield         | OpenFOAM: The Open Source CFD Toolbox           |
|  \\    /   O peration     | Version:  2112                                  |
|   \\  /    A nd           | Website:  www.openfoam.com                      |
|    \\/     M anipulation  |                                                 |
\*---------------------------------------------------------------------------*/
FoamFile
{
    version     2.0;
    format      ascii;
    arch        "LSB;label=32;scalar=64";
    class       surfaceScalarField;
    location    "14.2";
    object      phi;
}
// * * * * * * * * * * * * * * * * * * * * * * * * * * * * * * * * * * * * * //

dimensions      [0 3 -1 0 0 0 0];

oriented        oriented;

internalField   nonuniform List<scalar> 
43645
(
0.39512383762912
-4.9645412989567e-06
0.39513867632502
-1.4838667320021e-05
0.39516333544886
-2.4659092912776e-05
0.39519779849634
-3.4463015538315e-05
0.39524206424878
-4.4265720371969e-05
0.39529614776745
-5.4083486939963e-05
0.39536005694493
-6.3909146373624e-05
0.39543376744247
-7.3710467164927e-05
0.39551720929381
-8.3441821788563e-05
0.3956102760721
-9.3066749527494e-05
0.39571283719052
-0.0001025610905173
0.39582476055406
-0.00011192333643049
0.39594591316423
-0.00012115258389586
0.39607617793441
-0.0001302647446565
0.39621542765886
-0.00013924969971027
0.3963635509671
-0.0001481232841777
0.39652039343049
-0.00015684244000631
0.39668582857046
-0.00016543511714204
0.39685963705952
-0.0001738084667873
0.39704168507396
-0.00018204799258735
0.39723165485677
-0.00018996976136666
0.39742946018143
-0.00019780530348282
0.39763462166086
-0.00020516145850244
0.3978472210041
-0.00021259932243104
0.39806645204166
-0.00021923101685991
0.39829282156389
-0.00022636950150747
0.39852480185641
-0.00023198027178437
0.39876391314992
-0.00023911127291141
0.39900700266969
-0.00024308949946182
-0.00025091298244183
0.39925791567288
0.37294716845686
-9.5782137115488e-06
0.37296102535596
-2.8695519305286e-05
0.37298425202827
-4.7885717232857e-05
0.37301683207844
-6.7043017791684e-05
0.37305876733469
-8.6200929351548e-05
0.37311007809912
-0.0001053942049669
0.37317077868268
-0.00012460968456451
0.37324085353855
-0.00014378527871756
0.37332024529552
-0.00016283353555379
0.37340886398058
-0.00018168539246713
0.37350659811019
-0.00020029517914483
0.37361333565503
-0.0002186608413384
0.37372896332962
-0.00023678021968012
0.37385338270422
-0.00025468408143509
0.37398648436207
-0.00027235132076267
0.37412817429416
-0.00028981318033958
0.37427831600206
-0.00030698411286017
0.37443680156583
-0.00032392064656529
0.37460343169129
-0.00034043855860899
0.37477809248065
-0.00035670874880862
0.37496048775492
-0.0003723650030123
0.37515055043784
-0.00038786795408343
0.37534782431998
-0.00040243530862882
0.37555240789726
-0.00041718286780783
0.37576352425529
-0.00043034734311586
0.37598169283128
-0.00044453804567296
0.37620543294789
-0.00045572035653952
0.37643626608887
-0.00046994438228113
0.37667113304512
-0.00047795642503236
-0.00049365429946473
0.37691387439382
0.35201539616967
-1.4076812465075e-05
0.35202885154733
-4.2150848146529e-05
0.35205128692027
-7.0321041191109e-05
0.35208271144757
-9.8467496690485e-05
0.35212314406708
-0.00012663350146419
0.35217261216742
-0.00015486225903343
0.35223113377112
-0.00018313124326833
0.3522987010574
-0.00021135252122549
0.35237527201979
-0.00023940445549322
0.35246077972062
-0.00026719305208136
0.35255514020487
-0.00029465562350883
0.3526582707817
-0.00032179137948039
0.35277008586593
-0.00034859526648728
0.35289051342018
-0.0003751115993639
0.35301946714295
-0.0004013050083453
0.35315687728332
-0.00042722328644442
0.3533026290555
-0.00045273585172016
0.35345664217251
-0.00047793373095277
0.35361873952521
-0.00050253587940496
0.35378884055887
-0.00052680975101054
0.35396666654158
-0.00055019095472145
0.35415219036895
-0.00057339175066038
0.35434495889243
-0.00059520380152731
0.35454512575163
-0.00061734969639205
0.3547518876034
-0.00063710916426076
0.35496585623459
-0.00065850664597875
0.35518545834751
-0.00067532243839305
0.35541238707
-0.00069687307373502
0.35564333588843
-0.00070890521325089
-0.00073278095284036
0.35588246257333
0.33225840700461
-1.8439816018333e-05
0.33227143994432
-5.5183744110052e-05
0.3322931503872
-9.2031440142778e-05
0.33232355654615
-0.0001288736121527
0.33236268999977
-0.0001657669124721
0.33241058663784
-0.0002027588554562
0.33246727008701
-0.00023981465189894
0.33253274200383
-0.00027682439856796
0.33260697851618
-0.00031364092953619
0.33268994045868
-0.00035015495736446
0.33278157770036
-0.00038629282915865
0.33288184429691
-0.0004220579410738
0.33299068959199
-0.00045744052774663
0.33310807523265
-0.00049249720717504
0.33323394417696
-0.00052717392082937
0.33336825780825
-0.00056153688673153
0.33351092845759
-0.00059540647090251
0.33366191141503
-0.0006289166588648
0.33382105656097
-0.00066168099645286
0.33398832667306
-0.00069407983460637
0.33416346251718
-0.00072532677077093
0.33434648999382
-0.00075641919940284
0.33453695427041
-0.00078566805043585
0.33473508485087
-0.00081548024914385
0.3349400344267
-0.0008420587123965
0.33515254854422
-0.00087102073559706
0.33537092037708
-0.00089369424322362
0.33559710868612
-0.00092306135481527
0.33582747635934
-0.00093927285934458
-0.00097204698068741
0.33606674241557
0.31361028608941
-2.2668488732979e-05
0.31362289991266
-6.7797528413467e-05
0.31364390155034
-0.00011303303887537
0.31367332561622
-0.00015829763963437
0.31371121872079
-0.0002036599795414
0.31375762605259
-0.00024916615072539
0.3138125781036
-0.00029476666749751
0.31387608854989
-0.00034033481051395
0.31394815559081
-0.00038570793727419
0.31402877316277
-0.00043077249721657
0.314117931187
-0.00047545082244284
0.31421562739544
-0.00051975411960146
0.31432185293269
-0.00056366603617851
0.31443661028304
-0.00060725452962579
0.31455987823996
-0.00065044185081614
0.31469165673229
-0.00069331535285886
0.31483189172104
-0.00073564143421512
0.3149805826898
-0.00077760760272157
0.31513761285994
-0.00081871114222264
0.31530299880403
-0.00085946575461419
0.31547650540584
-0.00089883334881112
0.31565822491226
-0.0009381386820971
0.31584770094832
-0.00097514406287217
0.31604525871233
-0.0010130379893581
0.31624999765843
-0.001046797634603
0.31646283155879
-0.0010838546117133
0.31668188898273
-0.0011127516426613
0.3169094570137
-0.0011506293611937
0.31714148261052
-0.001171298432167
-0.0012139248988945
0.31738336055413
0.29600878824201
-2.6754837077998e-05
0.29602095754349
-7.9966794241215e-05
0.29604120711494
-0.00013328257472838
0.29606959204553
-0.00018668253512364
0.29610617743946
-0.00024024533916632
0.29615101998379
-0.00029400866159676
0.29620415873174
-0.00034790538295835
0.29626562174751
-0.00040179779470148
0.29633543294761
-0.00045551910682704
0.29641362439619
-0.00050896391616902
0.29650023198002
-0.00056205837768736
0.29659530364396
-0.00061482575586112
0.29669887886925
-0.00066724123477022
0.29681100778144
-0.00071938341593339
0.29693171147394
-0.00077114551830882
0.29706103565989
-0.0008226395144647
0.29719896669825
-0.00087357244893976
0.29734555683337
-0.00092419771469128
0.29750072978558
-0.00097388407181448
0.29766456634533
-0.0010233022920274
0.29783686189172
-0.0010711288732022
0.29801778777844
-0.0011190645469033
0.29820688936603
-0.0011642456287019
0.2984046046921
-0.0012107532935855
0.29860997615956
-0.0012521690802113
0.29882411204844
-0.0012979904785079
0.29904495675156
-0.0013335963235672
0.29927517140265
-0.0013808439900888
0.29951023486539
-0.0014063618733654
-0.0014599916397237
0.29975630162908
0.27939515936812
-3.0679655819895e-05
0.27940682593258
-9.1633327675035e-05
0.279426227409
-0.00015268402024623
0.27945344183363
-0.0002138969293417
0.27948855509465
-0.00027535857053313
0.27953163714293
-0.00033709068098568
0.27958273715498
-0.0003990053670142
0.27964189967485
-0.00046096028740011
0.2797091774178
-0.0005227968235396
0.27978464477347
-0.00058443124644939
0.27986838857991
-0.00064580215966921
0.27996051257841
-0.00070694973070752
0.28006111032996
-0.00076783896356142
0.28017028570752
-0.0008285587714451
0.280288108185
-0.00088896797451977
0.2804146761122
-0.00094920742096467
0.28055002305563
-0.0010089193723064
0.28069426233264
-0.0010684369720232
0.28084736585382
-0.001126987573777
0.28100948875735
-0.0011854251765459
0.28118046471961
-0.0012421048167167
0.28136055637395
-0.0012991561825244
0.28154931727509
-0.0013530065112181
0.28174731357406
-0.0014087495737825
0.2819535334266
-0.0014583889139295
0.28216930097869
-0.0015137580114946
0.28239237143301
-0.001556666758624
0.28262581309516
-0.001614285632924
0.28286461572282
-0.0016451644822089
-0.0017111267237826
0.28311575082702
0.26371394534491
-3.4415524483226e-05
0.26372502703176
-0.0001027149868263
0.26374344730515
-0.00017110426605561
0.26376930855258
-0.0002397581495836
0.26380271833089
-0.00030876832228325
0.2638437605966
-0.00037813292074186
0.2638924955971
-0.00044774034228201
0.26394898591345
-0.00051745057917137
0.26401331543364
-0.00058712631992838
0.26408560407984
-0.00065671986952095
0.26416599348187
-0.0007261915393668
0.26425464753095
-0.00079560375811193
0.26435171852234
-0.00086490993403205
0.26445736915906
-0.00093420938784386
0.2645717226715
-0.0010033214673314
0.26469493615126
-0.0010724208815888
0.26482709688192
-0.0011410800844038
0.26496838691686
-0.0012097269887564
0.26511883425711
-0.0012774348962696
0.26527867783633
-0.0013452687382261
0.26544779866451
-0.0014112256276681
0.26562656183867
-0.0014779193395269
0.26581453868875
-0.0015409833443238
0.26601243663762
-0.0016066475056297
0.26621919922633
-0.0016651514856915
0.26643638192606
-0.0017309406941286
0.26666155976106
-0.001781844576527
0.26689822571453
-0.0018509515693785
0.26714088818124
-0.0018878269324562
-0.0019675919708458
0.26739735344592
0.24891280857109
-3.7931383049425e-05
0.24892320712974
-0.00011311352172471
0.24894049102163
-0.00018838813431023
0.24896478614689
-0.00026405325154833
0.24899622153278
-0.00034020368539254
0.24903489506216
-0.0004168064278316
0.24908087820986
-0.00049372346829436
0.24913425221375
-0.00057082456190057
0.24919513341286
-0.00064800749852203
0.24926368913821
-0.00072527557489429
0.2493401182506
-0.00080262063242826
0.2494246476427
-0.00088013313141604
0.24951749163357
-0.00095775390674799
0.24961887544464
-0.0010355931812331
0.24972898036463
-0.0011134263702179
0.24984802710806
-0.0011914676083104
0.249976162469
-0.0012692154291201
0.25011364370143
-0.0013472082052472
0.25026056260425
-0.0014243537835283
0.25041725003875
-0.0015019561573268
0.25058364429876
-0.0015776198725429
0.25076022244094
-0.0016544974666278
0.25094658618191
-0.0017273470703682
0.25114359402567
-0.0018036553344117
0.25135016106608
-0.0018717185111858
0.25156808177629
-0.0019488613892991
0.25179477435471
-0.0020085371399261
0.25203415572375
-0.0020903329234778
0.25228029311395
-0.0021339643082097
-0.0022291029259685
0.25254180408462
0.23494235133484
-4.1195138153467e-05
0.23495196649742
-0.00012272866348543
0.23496795336229
-0.00020437497843303
0.23499045975471
-0.00028655962346858
0.23501963523261
-0.00036937914318667
0.23505559119013
-0.00045276236558818
0.23509841035891
-0.0005365426177689
0.23514819278741
-0.00062060697146549
0.23520508741808
-0.00070490211075163
0.23526930918454
-0.00078949732329727
0.23534111478188
-0.00087442621222488
0.23542079493534
-0.00095981326772749
0.2355086275624
-0.0010455865171609
0.23560490227276
-0.0011318678753195
0.23570986137258
-0.0012183854542448
0.2358237923353
-0.0013053985555526
0.23594690621754
-0.0013923292962998
0.23607954003915
-0.0014798420120412
0.23622185654664
-0.001566670276561
0.23637428440498
-0.0016543840013738
0.23653682978082
-0.0017401652343528
0.23671008822544
-0.0018277558973176
0.23689370739109
-0.0019109662222949
0.23708870250066
-0.0019986504302747
0.23729398332912
-0.0020769993260904
0.23751158270534
-0.0021664607519392
0.23773879978459
-0.0022357542057251
0.23797995378824
-0.0023314869138598
0.23822874415172
-0.0023827546589548
-0.0024948876845534
0.23849452892399
0.22175595021822
-4.4175549453423e-05
0.22176468920439
-0.00013146763176526
0.2217792266355
-0.00021891239170983
0.2217997312964
-0.00030706426669072
0.22182637179001
-0.00039601961942431
0.22185927160322
-0.00048566216166214
0.22189852364977
-0.00057579464750611
0.22194424589892
-0.00066632920406034
0.2219966193742
-0.00075727556982637
0.22205590576448
-0.00084878369764669
0.22212241862656
-0.00094093905874819
0.22219651117071
-0.001033905796596
0.22227852462025
-0.0011275999518154
0.2223688124487
-0.0012221556891299
0.22246767945257
-0.0013172524438549
0.22257548051696
-0.0014131996059236
0.22269249476256
-0.0015093435282095
0.22281914055258
-0.0016064877885567
0.22295565851095
-0.0017031882217323
0.22310257708021
-0.0018013025575521
0.22325998223728
-0.0018975703785932
0.22342858907735
-0.0019963627246298
0.22360811076519
-0.0020904878975776
0.22379971738914
-0.0021902570417009
0.22400234364938
-0.0022796255739661
0.22421825165906
-0.0023823687492666
0.22444467465096
-0.0024621771854246
0.224686293082
-0.0025731053329136
0.22493655012817
-0.0026330116936414
-0.0027637559758118
0.22520541843178
0.20930960139974
-4.6844984420978e-05
0.20931738361565
-0.00013924983203231
0.20933033770194
-0.00023186646235578
0.20934865176919
-0.00032537831838166
0.20937251141232
-0.00041987924719417
0.20940205035948
-0.00051520109359265
0.20943737017784
-0.00061111445085592
0.20947860494411
-0.00070756395545651
0.20952596551502
-0.00080463612610312
0.20957975731666
-0.0009025754848039
0.20964034832936
-0.0010015300572364
0.20970815121037
-0.0011017086635552
0.20978356840235
-0.001203017130028
0.20986701419386
-0.0013056014670316
0.20995885593004
-0.0014090941667252
0.21005951333175
-0.0015138569944866
0.21016933681505
-0.0016191669986456
0.21028882318367
-0.0017259741444542
0.21041829892453
-0.00183266395013
0.21055838745182
-0.0019413910725111
0.21070927112816
-0.0020484540428456
0.21087177421292
-0.0021588657973907
0.21104570665475
-0.0022644203276299
0.21123237269377
-0.0023769230690147
0.21143078031417
-0.0024780331828686
0.21164338924761
-0.0025949776712909
0.21186743656501
-0.002686224491603
0.21210790340659
-0.0028135721635455
0.21235812002059
-0.0028832282971998
-0.0030341548212896
0.21262851887728
0.19756177260261
-4.9181044152932e-05
0.19756853363262
-0.0001460108483303
0.19757979664067
-0.00024312945666461
0.19759576673092
-0.00034134839491333
0.19761664387927
-0.00044075638195744
0.19764256971241
-0.00054112691319211
0.19767365226515
-0.00064219699019433
0.19771003912623
-0.00074395080317097
0.19775196765128
-0.00084656463795108
0.19779978272945
-0.00095039054982164
0.19785390189777
-0.0010556492125836
0.19791479200404
-0.0011625987569165
0.19798291280124
-0.0012711379145205
0.19805873474534
-0.0013814233985032
0.19814268530571
-0.0014930447146825
0.19823524426333
-0.0016064159397994
0.19833683471781
-0.0017207574410323
0.19844802493569
-0.0018371643503446
0.19856923607603
-0.0019538750787038
0.1987011727199
-0.0020733277047344
0.19884413869225
-0.0021914200037604
0.19899903583668
-0.0023137629304987
0.19916583028095
-0.0024312147607911
0.1993458930613
-0.0025569858383511
0.19953841013208
-0.0026705502428481
0.19974594930674
-0.0028025168352686
0.19996585696911
-0.0029061321435039
0.20020334196233
-0.0030510571465778
0.2004517675118
-0.0031316538369701
-0.0033042034500485
0.20072181615098
0.18647326395367
-5.1167616340074e-05
0.18647895850615
-0.0001517053885347
0.18648845425252
-0.00025262519067487
0.18650197036986
-0.00035486449987057
0.18651971802972
-0.00045850402949563
0.18654184402831
-0.00056325289946552
0.18656846023017
-0.00066881317981194
0.18659972456028
-0.00077521512102521
0.18663589643409
-0.00088273649958969
0.18667735473275
-0.00099184883630619
0.18672455997161
-0.0011028544393751
0.1867780266959
-0.0012160654691373
0.1868382647744
-0.0013313759810684
0.18690579543744
-0.0014489540496181
0.18698110029077
-0.0015683495562286
0.18706471527894
-0.0016900309162429
0.18715713020684
-0.0018131723573716
0.18725898284236
-0.0019390169743923
0.18737078361852
-0.0020656758435945
0.18749331883699
-0.0021958629120434
0.18762701006757
-0.0023251112233984
0.18777283981428
-0.0024595926664025
0.18793093604561
-0.0025893109815472
0.18810272303135
-0.0027287728136612
0.18828762571101
-0.0028554529123094
0.18848821746059
-0.0030031085748057
0.18870214194845
-0.0031200566215566
0.18893464345655
-0.0032835586451642
0.1891793382482
-0.0033763486195777
-0.0035718045828917
0.18944693939079
0.17600707666944
-5.279551535651e-05
0.17601168039826
-0.00015630910614156
0.17601936719372
-0.00026031197480626
0.17603036702403
-0.00036586431880931
0.17604489880912
-0.00047303580325193
0.1760631115136
-0.00058146559258036
0.17608511790623
-0.00069081956113836
0.17611108256
-0.00080117976345836
0.1761412817843
-0.00091293571261189
0.17617612188908
-0.0010266889297726
0.1762160985837
-0.0011428311227435
0.17626176606786
-0.0012617329420041
0.17631367587638
-0.0013832857783662
0.17637239251667
-0.0015076706786604
0.17643844338643
-0.0016344004148249
0.17651241537333
-0.0017640028919974
0.17659485608125
-0.001895613054276
0.17668647000213
-0.0020306308843154
0.17678784502691
-0.0021670508576095
0.17689985370936
-0.0023078715838373
0.1770230158368
-0.002448273340421
0.17715841755391
-0.0025949943732548
0.1773063092057
-0.0027372026233437
0.17746822329408
-0.0028906868922313
0.17764377095113
-0.0030310005598053
0.17783556630622
-0.0031949039205359
0.17804161549354
-0.0033261057997714
0.1782670230034
-0.0035089661461996
0.17850596563349
-0.003615291241256
-0.0038347162458103
0.17876887730552
0.16612828905839
-5.406258404063e-05
0.16613179880217
-0.00015981883941625
0.16613767013253
-0.00026618329455326
0.16614614028336
-0.00037433445897876
0.16615743229116
-0.00048432780044904
0.16617169420796
-0.00059572749878859
0.16618903668746
-0.00070816203012036
0.16620962695431
-0.00082177001979424
0.16623375260253
-0.0009370613504067
0.16626184000423
-0.0010547763210277
0.16629441147766
-0.0011754025857892
0.16633205158158
-0.001299373035487
0.16637534418935
-0.0014265783757448
0.16642488784471
-0.0015572143235818
0.1664812468219
-0.0016907593816156
0.16654504995186
-0.001827806011542
0.16661689412826
-0.001967457220368
0.16669754229
-0.0021112790357962
0.16678765068543
-0.0022571592429475
0.16688817106342
-0.0024083919518925
0.16699971269711
-0.0025598149644232
0.16712346350561
-0.0027187451722809
0.16725978399981
-0.0028735231083834
0.16741033228046
-0.0030412351639656
0.16757486400053
-0.0031955322712737
0.16775610808075
-0.0033761479923906
0.16795234779837
-0.0035223455092902
0.16816860520196
-0.0037252235419709
0.16839975373775
-0.0038464397695337
-0.0040905387995989
0.16865557629975
0.15680393963981
-5.4973524593321e-05
0.15680637263727
-0.00016225182683025
0.15681045582027
-0.00027026646744582
0.1568164300522
-0.00038030868083689
0.15682451898145
-0.00049241671977357
0.15683486673063
-0.00060607523814808
0.15684757889362
-0.00072087418348538
0.15686282129613
-0.00083701241278743
0.15688088703136
-0.00095512707630671
0.15690221474141
-0.0010761040218179
0.15692734428593
-0.0012005321211586
0.15695688056162
-0.001328909302009
0.15699142977688
-0.0014611275818904
0.15703161425809
-0.0015973987956117
0.15707802539087
-0.0017371705052457
0.15713132356454
-0.0018811041760313
0.15719214498999
-0.0020282786366993
0.15726129965128
-0.0021804336880252
0.15733950303072
-0.0023353626134998
0.15742777293794
-0.0024966618503999
0.15752680192102
-0.0026588439390834
0.15763786410669
-0.002829807349816
0.15776143388042
-0.0029970928743434
0.15789927177996
-0.0031790730560905
0.15805130165915
-0.0033475621434171
0.158220319872
-0.0035451661985091
0.15840495704787
-0.0037069826787099
0.15861002333918
-0.0039302898270888
0.15883133639576
-0.0040677528201025
-0.0043368833729538
0.15907768097586
0.14800291677801
-5.5539363522175e-05
0.1480043088589
-0.00016364389780078
0.14800666190903
-0.00027261950770659
0.14801021733608
-0.00038386409825148
0.14801519584047
-0.00049739521486317
0.14802173473614
-0.00061261412486307
0.14802993188435
-0.00072907132314575
0.14803994781174
-0.00084702833197508
0.14805207547283
-0.00096725472955992
0.14806675783966
-0.0010907863810472
0.14808454327309
-0.0012183175472107
0.14810604665409
-0.0013504126757149
0.14813188645878
-0.0014869673793745
0.14816269779623
-0.001628210125813
0.14819908913988
-0.0017735618416636
0.14824174070028
-0.0019237557291623
0.14829131773046
-0.0020778556596588
0.14834866347582
-0.0022377794262201
0.14841454259837
-0.0024012417290713
0.14849002251078
-0.0025721417560409
0.14857587280759
-0.0027446942294662
0.14867343029919
-0.0029273648353631
0.1487832915368
-0.0031069541063701
0.14890727276275
-0.0033030542769087
0.14904553270951
-0.003485822085538
0.14920079327483
-0.0037004267595972
0.14937226065411
-0.003878450054086
0.14956418726177
-0.0041222164310505
0.14977371921236
-0.0042772847669888
-0.0045714289290559
0.15000826477292
0.13969585434277
-5.5776436801812e-05
0.13969625842667
-0.00016404797112879
0.13969696651315
-0.00027332758377643
0.13969821758477
-0.00038511515999614
0.13970022695966
-0.00049940458060308
0.13970312260024
-0.00061550975702454
0.13970699233498
-0.00073294105024638
0.13971198778282
-0.00085202377286347
0.13971839653012
-0.00097366347055913
0.13972665793016
-0.001099047775277
0.13973732024456
-0.0012289798562137
0.13975099780173
-0.0013640902276915
0.13976831201265
-0.0015042815852628
0.13978989923979
-0.0016497973479287
0.13981637592746
-0.0018000385243203
0.13984842889885
-0.0019558086955131
0.13988674276206
-0.0021161695178675
0.13993217788662
-0.0022832145458519
0.13998553809313
-0.0024546019308382
0.14004792093883
-0.0026345245972677
0.14012016758217
-0.0028169408687448
0.14020364738505
-0.0030108446346649
0.14029909726416
-0.0032024039824961
0.14040830534712
-0.0034122623574994
0.14053177663943
-0.0036092933761117
0.14067196018523
-0.0038406103042214
0.14082888721444
-0.0040353770825251
0.14100600119797
-0.0042993304139849
0.1412019621063
-0.0044732456744911
-0.004791924708685
0.14142245788757
0.13185503310351
-5.5704799030793e-05
0.1318545133302
-0.00016352818462896
0.13185368318293
-0.00027249742340712
0.13185277573399
-0.00038420769885082
0.13185199791839
-0.00049862675403976
0.13185146664992
-0.00061497847887432
0.13185125812981
-0.00073273252174447
0.13185151139861
-0.00085227703440433
0.13185250376378
-0.00097465582950962
0.13185466346963
-0.0011012074756723
0.13185853134553
-0.001232847727293
0.13186471053775
-0.0013702694154493
0.13187381740289
-0.001513388446187
0.13188647704355
-0.0016624569844508
0.13190330719492
-0.0018168686715957
0.13192498559652
-0.0019774870930027
0.13195221004744
-0.0021433939647248
0.13198583706615
-0.0023168415606062
0.1320267036898
-0.0024954685507662
0.13207591204034
-0.0026837329444399
0.13213437186087
-0.0028754006864139
0.13220345636331
-0.0030799291348793
0.13228404714904
-0.0032829947667715
0.13237786695958
-0.0035060821674246
0.13248574943882
-0.0037171758555762
0.13260986099607
-0.0039647218624885
0.13275099715184
-0.0041765132398726
0.13291188809327
-0.0044602213571896
0.13309287174033
-0.0046542293228804
-0.0049963112794943
0.13329725831074
0.12445428897415
-5.5347417247074e-05
0.12445291877025
-0.0001621579611181
0.12445067341362
-0.00027025204667616
0.12444777586715
-0.00038131013336151
0.12444442188003
-0.00049527274963714
0.12444071764071
-0.00061127422413222
0.12443672838878
-0.00072874325623459
0.12443257706604
-0.00084812569969747
0.12442852479765
-0.00097060355054897
0.12442498084993
-0.0010976635184462
0.12442247231545
-0.0012303391841291
0.12442158118438
-0.0013693782762162
0.12442291327253
-0.0015147205265199
0.12442706941333
-0.0016666131175934
0.12443466583606
-0.0018244650867704
0.12444635107561
-0.001989172325049
0.12446283708826
-0.0021598799699827
0.12448494470727
-0.0023389491724168
0.12451355138512
-0.0025240752217534
0.12454972179162
-0.0027199033445778
0.12459444205211
-0.0029201209412531
0.12464906445391
-0.0031345515319001
0.1247145745769
-0.0033485048860288
0.1247927355456
-0.0035842431335332
0.12488444155757
-0.003808881866139
0.12499199055791
-0.0040722708625448
0.12511612228116
-0.0043006449636903
0.1252597796663
-0.0046038787432362
0.12542411569894
-0.0048185653559397
-0.0051835482872852
0.12561135270755
0.11746892483671
-5.4728448863318e-05
0.11746678252901
-0.00016001562189063
0.1174632574853
-0.00026672697014687
0.1174585560023
-0.00037660861857358
0.11745285824329
-0.00048957496087291
0.11744626021887
-0.00060467617227986
0.11743881925074
-0.00072130226292061
0.11743064114184
-0.00083994756757888
0.11742196674164
-0.0009619291287904
0.11741317918526
-0.0010888759417733
0.11740478383068
-0.0012219438102185
0.11739733139203
-0.0013619258188888
0.1173914127569
-0.0015088018731523
0.11738759318601
-0.0016627935287341
0.11738648828806
-0.0018233601710636
0.11738869588347
-0.0019913799028848
0.1173949517887
-0.0021661358578818
0.1174059957715
-0.0023499931382488
0.11742277574748
-0.0025408551813225
0.11744623803704
-0.0027433656185236
0.11747750761279
-0.0029513905024
0.11751780883742
-0.0031748527432269
0.11756827840133
-0.0033989744380739
0.11763072978146
-0.0036466945034116
0.11770592578106
-0.003884077857102
0.11779695634705
-0.0041633014215339
0.11790311705509
-0.0044068056660521
0.11802969279125
-0.0047304544744627
0.11817389827867
-0.0049627708381638
-0.0053549127983832
0.11834526279691
0.11087563662203
-5.3880131649855e-05
0.11087280884077
-0.00015718779259105
0.11086814606915
-0.00026206414856853
0.11086183332891
-0.00037029582939243
0.11085403972086
-0.00048178130610482
0.11084485081247
-0.00059548721973154
0.11083431259014
-0.00071076399886569
0.11082250911874
-0.00082814405655474
0.11080966035394
-0.00094908032609669
0.11079612215509
-0.0010753377063345
0.11078237136718
-0.0012081929867168
0.11076892106495
-0.0013484754817634
0.11075634183705
-0.0014962226108944
0.11074515641403
-0.001651608071722
0.11073597618534
-0.0018141799087575
0.110729332613
-0.0019847362972798
0.11072599307278
-0.0021627962848794
0.11072657315778
-0.0023505731910763
0.11073213803807
-0.0025464200303821
0.11074339840669
-0.0027546259571101
0.11076177666052
-0.0029697687278036
0.11078807126265
-0.0032011473187795
0.11082395977824
-0.0034348629291887
0.11087068003327
-0.0036934147361364
0.11092952589508
-0.0039429236988749
0.11100384676205
-0.004237622270775
0.11109185174851
-0.0044948106368636
0.11120333668169
-0.0048419393933702
0.11132349773443
-0.0050829318768493
-0.0055119121467821
0.11148049709971
0.1046524311377
-5.2845243482016e-05
0.10464903819444
-0.00015379478368951
0.10464338910919
-0.00025641499644618
0.10463564622784
-0.00036255288242624
0.10462599448669
-0.00047212950162271
0.10461452639659
-0.00058401906880685
0.10460126413612
-0.00069750167989147
0.10458626085579
-0.00081314071967037
0.10456971079408
-0.00093253020939011
0.10455193409007
-0.0010575609484874
0.10453337210809
-0.0011896309517895
0.10451450311407
-0.0013296064354925
0.1044958760458
-0.001477595490908
0.10447797716114
-0.0016337091358645
0.10446140511764
-0.0017976078145388
0.10444662485223
-0.0019699559817603
0.10443441727901
-0.0021505886622658
0.10442525804535
-0.0023414139090702
0.1044203358647
-0.0025414978027681
0.10442005180725
-0.0027543418546294
0.10442627924986
-0.0029759961277143
0.10443903338196
-0.0032139014109926
0.10446123927857
-0.003457068788786
0.10449214407243
-0.0037243194960083
0.10453595654898
-0.0039867361444659
0.10459170688717
-0.0042933725812303
0.10466334441296
-0.0045664481378758
0.10475690966459
-0.0049355046224068
0.1048612953189
-0.0051873175093124
-0.0056518910688014
0.10500127426708
0.098778499860466
-5.1626764622533e-05
0.098774685173278
-0.00014998001926052
0.098768204005612
-0.00024993375106777
0.098759219967983
-0.00035356876847031
0.098747924409427
-0.00046083386879877
0.098734481576967
-0.00057057616418367
0.098718849226414
-0.00068186925902366
0.098701061252806
-0.00079535267717858
0.098681299327098
-0.00091276821586362
0.098659826020294
-0.0010360875745959
0.098637031668054
-0.0011668365330222
0.098613358154499
-0.0013059328558216
0.098589319830343
-0.0014535571010604
0.098565374390505
-0.0016097636307313
0.098542097234551
-0.0017743305938309
0.0985199145342
-0.0019477732172916
0.098499577676964
-0.0021302517418998
0.098481469079843
-0.0023233052501758
0.098466792086998
-0.0025268207502103
0.098455737685163
-0.0027432873958071
0.098450454307789
-0.0029707126968785
0.098450313491488
-0.0032137605451489
0.09845945018983
-0.0034662054417479
0.098474764245918
-0.003739633510801
0.098504893922116
-0.0040168657835436
0.098540369377275
-0.0043288480036102
0.098599242091305
-0.0046253208231866
0.098659246009389
-0.0049955085143774
0.098753173891055
-0.0052812453648674
0.098908790017027
-0.0058075071639486
0.39460791760326
0.0046499980905313
0.39011678414207
0.0044911334817035
0.38578900520579
0.0043277789566978
0.38162895553088
0.0041600496955156
0.37764087086525
0.0039880846864743
0.37382884584795
0.0038120250385366
0.37019682521818
0.0036320206513258
0.36674859402186
0.0034482312183131
0.36348777017824
0.0032608238659365
0.3604178002584
0.0030699699425501
0.35754195695501
0.0028758433263856
0.35486333624999
0.0026786207283797
0.35238485363922
0.0024784826343333
0.35010924000316
0.0022756136599192
0.3480390374541
0.0020702025730486
0.34617659535614
0.0018624421221714
0.34452406650103
0.00165252887937
0.34308340351407
0.0014406630113728
0.34185635545996
0.0012270480784933
0.34084446456211
0.0010118909223295
0.34004906270847
0.00079540187803122
0.33947126671081
0.00057779602211288
0.33911196882974
0.00035929790540559
0.33897179539196
0.00014017346216464
0.33905124779777
-7.9452381551339e-05
0.33935076694779
-0.00029951912569338
0.33987025461569
-0.00051948764369653
0.3406095095553
-0.00073925491534021
0.34156811653499
-0.00095860695553224
0.34274543387456