/*--------------------------------*- C++ -*----------------------------------*\
| =========                 |                                                 |
| \\      /  F ield         | OpenFOAM: The Open Source CFD Toolbox           |
|  \\    /   O peration     | Version:  2112                                  |
|   \\  /    A nd           | Website:  www.openfoam.com                      |
|    \\/     M anipulation  |                                                 |
\*---------------------------------------------------------------------------*/
FoamFile
{
    version     2.0;
    format      ascii;
    arch        "LSB;label=32;scalar=64";
    class       volVectorField;
    location    "14.2";
    object      U;
}
// * * * * * * * * * * * * * * * * * * * * * * * * * * * * * * * * * * * * * //

dimensions      [0 1 -1 0 0 0 0];

internalField   nonuniform List<vector> 
22000
(
(1.0000010394583 -2.5829318580308e-05 0)
(1.0000267703811 -7.7332182649045e-05 0)
(1.0000761112022 -0.00012865363111266 0)
(1.0001501445267 -0.00017980231378877 0)
(1.0002493206226 -0.00023088994407443 0)
(1.0003736711594 -0.0002820241556235 0)
(1.000523058599 -0.00033317892162608 0)
(1.0006973211412 -0.00038418931541882 0)
(1.0008962792014 -0.00043481639871886 0)
(1.001119708912 -0.00048486824205002 0)
(1.0013673151144 -0.00053421768918882 0)
(1.0016387817835 -0.00058285691529672 0)
(1.0019337676935 -0.00063078149266705 0)
(1.002251974275 -0.00067807547749297 0)
(1.0025930699905 -0.00072468610904965 0)
(1.0029567885585 -0.00077069739318994 0)
(1.0033427482057 -0.00081588338926717 0)
(1.003750667178 -0.00086039294810477 0)
(1.0041800078409 -0.00090373804969477 0)
(1.0046304699933 -0.00094637319277181 0)
(1.0051012694264 -0.00098732843733045 0)
(1.0055921961006 -0.0010278330413881 0)
(1.0061020994692 -0.0010658051159104 0)
(1.0066310927354 -0.0011042262496247 0)
(1.0071773880455 -0.0011383800607908 0)
(1.0077418337438 -0.0011752576325034 0)
(1.0083214303135 -0.0012040245109861 0)
(1.0089185580155 -0.0012409511999804 0)
(1.009527888815 -0.0012610775461377 0)
(1.0101549891982 -0.0013021034401114 0)
(1.0000004925878 -7.5906371947339e-05 0)
(1.0000260610599 -0.00022739631876435 0)
(1.0000753847335 -0.00037853062940575 0)
(1.0001495062958 -0.00052929247991007 0)
(1.000248949073 -0.00067997625063928 0)
(1.0003738258233 -0.00083087796374512 0)
(1.0005240445569 -0.00098191026459921 0)
(1.0006994732995 -0.0011325849674011 0)
(1.0008999444522 -0.0012822020989022 0)
(1.0011252620836 -0.0014302016093199 0)
(1.0013751442384 -0.0015762134352091 0)
(1.0016493262797 -0.0017202153044934 0)
(1.0019474729102 -0.0018621943256599 0)
(1.0022693613346 -0.0020023939644487 0)
(1.0026146279591 -0.0021406587062573 0)
(1.0029831292685 -0.0022772287555116 0)
(1.0033743715401 -0.0024114435117752 0)
(1.0037883073496 -0.0025437266317841 0)
(1.0042241175885 -0.0026726560677207 0)
(1.0046819857114 -0.002799533166476 0)
(1.0051604716243 -0.0029215458796281 0)
(1.0056603953736 -0.003042223598875 0)
(1.0061791316976 -0.0031555658160418 0)
(1.0067190185334 -0.0032701281724551 0)
(1.0072750351628 -0.0033723764304002 0)
(1.0078528317492 -0.0034823261849749 0)
(1.0084424368934 -0.0035689945553424 0)
(1.0090565625654 -0.0036788226648278 0)
(1.0096749550485 -0.0037407106222243 0)
(1.0103255229216 -0.0038618519530998 0)
(1.0000005284654 -0.00012360767258569 0)
(1.0000268094048 -0.00037034479872275 0)
(1.0000773910774 -0.00061674107404251 0)
(1.0001532546213 -0.00086277305534469 0)
(1.0002549038602 -0.0011088744617316 0)
(1.0003824745012 -0.0013554709469305 0)
(1.0005359014008 -0.0016023879442333 0)
(1.0007150883312 -0.0018488398727831 0)
(1.0009198913087 -0.0020937225730493 0)
(1.0011501702582 -0.0023361674110339 0)
(1.0014056782685 -0.0025755972903345 0)
(1.001686243484 -0.0028119893436053 0)
(1.001991549776 -0.0030453093107565 0)
(1.0023215013917 -0.0032759481518504 0)
(1.0026756885095 -0.0035036221459923 0)
(1.0030541677684 -0.0037287347357488 0)
(1.0034562677634 -0.003950172776616 0)
(1.0038823270732 -0.0041686784429927 0)
(1.004331070041 -0.0043818573162051 0)
(1.0048034888201 -0.0045919399119159 0)
(1.0052970527295 -0.0047941556502264 0)
(1.0058143281126 -0.0049945017036551 0)
(1.0063501766291 -0.0051827856807901 0)
(1.0069107706851 -0.0053735327309938 0)
(1.0074854495059 -0.0055437826286327 0)
(1.008088308292 -0.0057274944738509 0)
(1.0086969089973 -0.0058721481564132 0)
(1.0093425716343 -0.0060564427016827 0)
(1.0099776237279 -0.0061599586844656 0)
(1.010671411113 -0.0063641160506626 0)
(1.0000005572923 -0.00016978655915887 0)
(1.0000275219046 -0.00050849276621069 0)
(1.0000793877663 -0.00084689383142745 0)
(1.0001571728261 -0.0011850585639506 0)
(1.0002614120493 -0.0015235543784305 0)
(1.0003922691504 -0.0018628803451237 0)
(1.0005496890203 -0.0022027482004916 0)
(1.0007336046782 -0.0025421176446101 0)
(1.000943898727 -0.0028795667440235 0)
(1.0011805126694 -0.0032140109718528 0)
(1.001443253798 -0.0035447234657925 0)
(1.0017320867969 -0.0038717068964871 0)
(1.0020467269203 -0.0041948873072058 0)
(1.0023872638155 -0.004514789104564 0)
(1.002753225982 -0.0048309586172661 0)
(1.0031449601797 -0.0051439782958928 0)
(1.0035615466209 -0.0054522476392161 0)
(1.0040038801068 -0.0057569047061717 0)
(1.0044700404801 -0.0060545091514115 0)
(1.0049621797903 -0.006348368092136 0)
(1.0054762218948 -0.0066315423239904 0)
(1.0060172285858 -0.0069127949076813 0)
(1.0065764935859 -0.0071772564662359 0)
(1.0071656541356 -0.0074461097548935 0)
(1.0077660448917 -0.00768590381682 0)
(1.008403772405 -0.0079461151582919 0)
(1.0090387324643 -0.0081502985619385 0)
(1.0097286660804 -0.0084129292735905 0)
(1.0103871199561 -0.0085589061649338 0)
(1.0111421313 -0.0088517221883049 0)
(1.0000005905937 -0.00021451815063497 0)
(1.000028240519 -0.00064209438699527 0)
(1.0000813967204 -0.0010694721384252 0)
(1.0001611386092 -0.0014968937306115 0)
(1.0002680577341 -0.0019250487314784 0)
(1.0004023614114 -0.0023544529570702 0)
(1.0005640076042 -0.0027846800487864 0)
(1.000752966143 -0.0032144856862541 0)
(1.0009691553519 -0.0036422292730739 0)
(1.0012126260657 -0.0040667186089239 0)
(1.0014832612297 -0.0044871450781253 0)
(1.001781208364 -0.0049035715522635 0)
(1.0021062304583 -0.0053158656321333 0)
(1.0024586639909 -0.0057246744061061 0)
(1.0028379668826 -0.0061293252497566 0)
(1.0032448690791 -0.0065306040510766 0)
(1.0036781425833 -0.0069263756490997 0)
(1.0041394088332 -0.00731827370637 0)
(1.004625933855 -0.0077017085990036 0)
(1.0051413714628 -0.0080812572799508 0)
(1.005679680954 -0.008447528830081 0)
(1.0062491348152 -0.0088124513001668 0)
(1.0068364825941 -0.0091558305359324 0)
(1.0074603615378 -0.0095064289449379 0)
(1.0080919133351 -0.0098188838605264 0)
(1.0087725721592 -0.010160294427749 0)
(1.0094397709539 -0.010427114842249 0)
(1.0101848468405 -0.01077430025909 0)
(1.0108721258349 -0.010964972874788 0)
(1.0117040298585 -0.01135515580798 0)
(1.0000006268762 -0.00025776841349426 0)
(1.0000288901889 -0.00077103309268951 0)
(1.0000831926894 -0.0012843148896299 0)
(1.0001646826173 -0.0017981227163067 0)
(1.0002740218307 -0.0023132495382569 0)
(1.0004114766005 -0.0028301586035983 0)
(1.0005770269794 -0.0033482550485893 0)
(1.0007706927452 -0.0038661470046969 0)
(1.0009924406983 -0.0043820869059575 0)
(1.0012424609443 -0.0048948974855406 0)
(1.0015207364815 -0.0054037655110588 0)
(1.0018276464232 -0.0059088549095362 0)
(1.0021630223816 -0.0064099547343945 0)
(1.0025275115105 -0.0069078256805776 0)
(1.0029204987964 -0.0074015214124116 0)
(1.0033431911911 -0.0078920633189626 0)
(1.0037940033413 -0.0083767268040112 0)
(1.0042754503109 -0.0088577610101807 0)
(1.004783835314 -0.0093293046996272 0)
(1.0053246411778 -0.0097974363598317 0)
(1.0058894850568 -0.010249978952309 0)
(1.0064905220082 -0.010702502988824 0)
(1.0071090699041 -0.011128723988394 0)
(1.0077721837894 -0.011566080400063 0)
(1.0084388267735 -0.011955617488251 0)
(1.0091687818755 -0.012384549270553 0)
(1.0098726929597 -0.01271847924431 0)
(1.0106819581962 -0.013158387788686 0)
(1.0114023638447 -0.013397258679476 0)
(1.0123247307995 -0.013895913817851 0)
(1.0000006635845 -0.00029939784499304 0)
(1.0000293739034 -0.00089487454137604 0)
(1.0000844981832 -0.0014907091715457 0)
(1.0001672584652 -0.0020877797617445 0)
(1.0002783991688 -0.0026869615161381 0)
(1.0004182597305 -0.0032885891231788 0)
(1.0005868514819 -0.003891866829429 0)
(1.0007842580758 -0.0044953184645648 0)
(1.0010105090871 -0.0050972129622434 0)
(1.0012659647912 -0.0056965236368283 0)
(1.0015507345256 -0.0062925187230345 0)
(1.0018654785373 -0.0068855107566419 0)
(1.0022101213277 -0.0074751912766046 0)
(1.0025856852523 -0.0080624291564081 0)
(1.0029914864038 -0.0086459480140533 0)
(1.0034293018026 -0.0092270452603714 0)
(1.003897151693 -0.0098023497029978 0)
(1.004398605962 -0.010374863410102 0)
(1.0049288798242 -0.010937320792766 0)
(1.0054955927981 -0.011497563597197 0)
(1.0060876919342 -0.012040261156544 0)
(1.0067218315312 -0.012585160357572 0)
(1.007373119012 -0.013099041766122 0)
(1.0080783054927 -0.013629235236441 0)
(1.0087824324429 -0.014101340063164 0)
(1.0095663106967 -0.014625431146432 0)
(1.0103100326218 -0.015032135613168 0)
(1.0111907005316 -0.015574539524909 0)
(1.0119475526149 -0.015866331363704 0)
(1.0129718856205 -0.016486515314807 0)
(1.0000006985289 -0.00033917424872568 0)
(1.0000295975676 -0.0010129108726854 0)
(1.0000850449378 -0.001687479966101 0)
(1.0001683422685 -0.0023642376987272 0)
(1.0002803277126 -0.0030441195033621 0)
(1.0004214256689 -0.0037272523801672 0)
(1.0005916859085 -0.0044126076845843 0)
(1.0007912687885 -0.0050986946994589 0)
(1.0010202813107 -0.0057839323917816 0)
(1.0012792847679 -0.0064675911330171 0)
(1.0015685423227 -0.0071491146232812 0)
(1.0018890443506 -0.0078290177595227 0)
(1.0022408351514 -0.0085068781694606 0)
(1.0026253755975 -0.0091836717619733 0)
(1.0030419231832 -0.0098577371013289 0)
(1.0034929147506 -0.010530696133225 0)
(1.0039759525459 -0.011198475658179 0)
(1.0044958125196 -0.011864982346238 0)
(1.0050465249315 -0.012521411187957 0)
(1.0056381261856 -0.013177650477157 0)
(1.0062566253314 -0.013814833200055 0)
(1.0069237230762 -0.01445745206834 0)
(1.007607668391 -0.015064467626583 0)
(1.0083560138567 -0.015694383935527 0)
(1.0090984325626 -0.016255411383455 0)
(1.0099390273201 -0.016883365316395 0)
(1.0107242448592 -0.017369587056351 0)
(1.0116815603362 -0.018025607340759 0)
(1.0124771845526 -0.018376304240781 0)
(1.0136127033735 -0.019132726347865 0)
(1.00000072993 -0.00037680731566175 0)
(1.0000294785229 -0.0011242665327482 0)
(1.0000845893466 -0.001873166730565 0)
(1.0001674539501 -0.0026254542480027 0)
(1.0002790179165 -0.0033821042737253 0)
(1.000419800493 -0.0041429578344953 0)
(1.000589893947 -0.004906723846976 0)
(1.0007895446907 -0.005671971982381 0)
(1.0010189500016 -0.0064374115871408 0)
(1.0012789009073 -0.0072027635487405 0)
(1.0015698417826 -0.0079677468806693 0)
(1.0018931396422 -0.0087331375487191 0)
(1.0022489872154 -0.0094983868584675 0)
(1.0026393434954 -0.010264581342877 0)
(1.0030634235401 -0.011029624196826 0)
(1.0035244068278 -0.011795517563083 0)
(1.0040194685707 -0.012557437406475 0)
(1.0045547263458 -0.013320356655645 0)
(1.0051229612438 -0.014073803057824 0)
(1.0057368691604 -0.014830005898368 0)
(1.0063793254503 -0.015566185417963 0)
(1.0070775337308 -0.01631216014033 0)
(1.0077923962015 -0.017018191381883 0)
(1.0085831595077 -0.017755247335063 0)
(1.0093630324416 -0.018412217710879 0)
(1.0102611747384 -0.01915352830661 0)
(1.0110880853057 -0.019726965185025 0)
(1.0121251272553 -0.020508771168616 0)
(1.0129607891302 -0.020925644728229 0)
(1.0142141496771 -0.021834270442271 0)
(1.0000007560917 -0.0004119792661856 0)
(1.0000289508372 -0.0012279922607627 0)
(1.0000829418453 -0.0020461844444491 0)
(1.0001642123887 -0.0028692019835612 0)
(1.0002738250313 -0.0036980398267858 0)
(1.0004124038107 -0.004532177190279 0)
(1.000580088801 -0.0053700350218639 0)
(1.0007772211658 -0.0062103225398606 0)
(1.0010041000645 -0.0070521846882217 0)
(1.0012617705591 -0.0078959502640054 0)
(1.0015508829626 -0.0087417176266263 0)
(1.0018732212571 -0.0095905853054721 0)
(1.0022291549248 -0.010441871037204 0)
(1.0026211934345 -0.011296779557532 0)
(1.0030485309904 -0.01215273687727 0)
(1.0035151613488 -0.013012186097243 0)
(1.0040178393348 -0.013869515914309 0)
(1.0045641370646 -0.014730931067671 0)
(1.0051455595756 -0.015584182685232 0)
(1.0057776548715 -0.016444133148195 0)
(1.0064400528892 -0.017283744845559 0)
(1.0071658050969 -0.018138722188628 0)
(1.0079081634686 -0.018949806929726 0)
(1.0087387055723 -0.019801660006206 0)
(1.0095534946042 -0.02056203980276 0)
(1.0105079254929 -0.021426690174048 0)
(1.0113751639018 -0.022095852354541 0)
(1.0124926475151 -0.023016323364591 0)
(1.0133684782147 -0.023507936424809 0)
(1.0147434749747 -0.024585534701325 0)
(1.0000007752589 -0.00044436853007602 0)
(1.0000279636921 -0.0013231329375456 0)
(1.000079960218 -0.0022049396045142 0)
(1.0001583337254 -0.0030932382290999 0)
(1.0002642679282 -0.0039890218300752 0)
(1.0003984972506 -0.0048913335694114 0)
(1.0005612131962 -0.0057982846317462 0)
(1.0007528565611 -0.006708804675733 0)
(1.0009738377402 -0.007622621248483 0)
(1.0012254756901 -0.0085408276113022 0)
(1.0015086514405 -0.0094640089964851 0)
(1.0018255982063 -0.010393648787318 0)
(1.0021768898362 -0.011328931995552 0)
(1.0025656254594 -0.012271189852356 0)
(1.0029910055507 -0.013217343206899 0)
(1.00345789161 -0.014170335864296 0)
(1.0039626432829 -0.015123754512926 0)
(1.00451436821 -0.016085193702521 0)
(1.0051033120093 -0.017040554114711 0)
(1.0057480027246 -0.018007598872228 0)
(1.0064248107009 -0.01895475412191 0)
(1.0071728426366 -0.019924104906881 0)
(1.0079376087964 -0.020846181372339 0)
(1.0088033595361 -0.021820417165041 0)
(1.0096487888935 -0.0226918740642 0)
(1.0106560445596 -0.02368999478847 0)
(1.0115606060756 -0.024464016278638 0)
(1.0127566851138 -0.025536339007952 0)
(1.0136715930987 -0.026112525786635 0)
(1.015168910699 -0.027376148980246 0)
(1.0000007866113 -0.00047367557541229 0)
(1.00002648387 -0.0014088039230509 0)
(1.0000755500637 -0.0023479529506207 0)
(1.0001496282593 -0.0032954721642717 0)
(1.0002500219151 -0.0042523297604417 0)
(1.0003775771639 -0.0052170606625244 0)
(1.0005325396737 -0.006187447940983 0)
(1.0007154505555 -0.0071627211176316 0)
(1.000926839227 -0.0081433358268719 0)
(1.0011683067988 -0.0091312997588871 0)
(1.0014409863847 -0.010127794595567 0)
(1.0017475780974 -0.011134746186763 0)
(1.0020888940989 -0.012151221039572 0)
(1.0024686410022 -0.013178679811919 0)
(1.0028860668166 -0.014213535559528 0)
(1.0033469186975 -0.015259275821103 0)
(1.0038472195245 -0.016308713391409 0)
(1.0043976358025 -0.017370952976922 0)
(1.0049872396643 -0.018430046708475 0)
(1.0056375632247 -0.019506848078484 0)
(1.0063218431117 -0.020565110622867 0)
(1.0070852535293 -0.021653632070765 0)
(1.0078657437706 -0.02269230000277 0)
(1.0087602137198 -0.023796097462032 0)
(1.0096302855042 -0.024786247729343 0)
(1.0106846537909 -0.02592776241302 0)
(1.0116218439856 -0.026816170753206 0)
(1.0128919340375 -0.028053376009365 0)
(1.0138434714419 -0.028725167941124 0)
(1.0154603530442 -0.030191494181685 0)
(1.0000007889002 -0.00049964447652452 0)
(1.0000244957441 -0.0014842563706614 0)
(1.0000696673017 -0.0024739696078709 0)
(1.0001380047744 -0.0034741190540123 0)
(1.0002309274659 -0.0044856236398796 0)
(1.0003493895457 -0.0055064408493679 0)
(1.0004936913114 -0.0065340100974704 0)
(1.0006644684561 -0.0075679365472774 0)
(1.0008623756035 -0.0086095448771041 0)
(1.0010892924383 -0.0096618971501344 0)
(1.001346626294 -0.010726880856277 0)
(1.0016375383191 -0.011806912815197 0)
(1.0019631208083 -0.012900970549265 0)
(1.0023276685437 -0.014010634029536 0)
(1.0027305539928 -0.015131844043551 0)
(1.0031783578228 -0.016268638634419 0)
(1.0036669052676 -0.017413158092822 0)
(1.0042083100139 -0.018576052132179 0)
(1.004790726464 -0.019739668528479 0)
(1.0054384627534 -0.020927965881679 0)
(1.0061220803975 -0.022100171079646 0)
(1.0068923730581 -0.023311760482326 0)
(1.0076805064984 -0.024472109747592 0)
(1.0085952657326 -0.025711815835161 0)
(1.0094823770675 -0.026828063139706 0)
(1.0105758822606 -0.028122240362707 0)
(1.0115393215926 -0.029134741141708 0)
(1.012876083615 -0.030549297293059 0)
(1.0138604298633 -0.031328763965403 0)
(1.0155906925016 -0.0330135706045 0)
(1.000000781897 -0.00052207762006263 0)
(1.0000220009255 -0.0015489206815523 0)
(1.000062317789 -0.0025820313296626 0)
(1.0001234731842 -0.003627802747167 0)
(1.0002069930938 -0.0046870783008999 0)
(1.0003139327667 -0.005757173168418 0)
(1.0004446438252 -0.0068351690311596 0)
(1.0005998468813 -0.0079211177835962 0)
(1.0007803217515 -0.0090173430289404 0)
(1.0009882158725 -0.010128091284344 0)
(1.0012252236976 -0.011256056951883 0)
(1.0014949500173 -0.01240419491587 0)
(1.0017988029983 -0.013571424972048 0)
(1.0021416230349 -0.014759438181142 0)
(1.0025229939908 -0.01596375392117 0)
(1.0029502269202 -0.017188952866116 0)
(1.0034191550742 -0.01842665946245 0)
(1.0039430847241 -0.019689015965432 0)
(1.004509718291 -0.020956990756945 0)
(1.005145544181 -0.022257374725094 0)
(1.0058194600179 -0.02354552771058 0)
(1.006586561394 -0.024882775062101 0)
(1.0073732878321 -0.026169419276266 0)
(1.0082977063902 -0.027549830536077 0)
(1.0091932461397 -0.02879958263233 0)
(1.0103152620509 -0.030254252504906 0)
(1.0112970420793 -0.031400533919045 0)
(1.0126905753895 -0.033004131954846 0)
(1.0137020190299 -0.033903996409098 0)
(1.0155358757286 -0.035821323985797 0)
(1.0000007648733 -0.00054084478388388 0)
(1.0000190185727 -0.0016024324347968 0)
(1.0000535574548 -0.0026715210470744 0)
(1.0001061401683 -0.0037556203425034 0)
(1.0001783874836 -0.0048554699078339 0)
(1.0002714461366 -0.005967682875528 0)
(1.0003857104605 -0.0070889697380463 0)
(1.000521974567 -0.0082198937908312 0)
(1.0006811333979 -0.0093638924397923 0)
(1.0008655896389 -0.010526515208901 0)
(1.0010773181974 -0.01171135016684 0)
(1.0013203549095 -0.012921940208346 0)
(1.0015964230454 -0.014157167630935 0)
(1.0019108935033 -0.015418850674677 0)
(1.0022635744126 -0.016702109427311 0)
(1.0026624849764 -0.018012118689985 0)
(1.0031035136676 -0.019340060148406 0)
(1.0036011156912 -0.020699661118612 0)
(1.0041426597144 -0.022070624580072 0)
(1.0047566974247 -0.023482647851264 0)
(1.0054107544313 -0.024887375275734 0)
(1.0061638651936 -0.02635195623351 0)
(1.006938565099 -0.027767976827903 0)
(1.0078609425765 -0.029293050782772 0)
(1.0087546122798 -0.030682652830857 0)
(1.0098924280666 -0.032303921392627 0)
(1.0108835750213 -0.033594276971874 0)
(1.0123205666349 -0.035396147205232 0)
(1.0133523190007 -0.036429675866374 0)
(1.0152765568872 -0.038591936302578 0)
(1.000000738304 -0.00055588718182329 0)
(1.0000155821676 -0.0016446438823601 0)
(1.0000434842349 -0.0027421822204734 0)
(1.0000861981125 -0.0038571711152016 0)
(1.0001454227577 -0.0049902166141507 0)
(1.0002223845956 -0.0061371751060075 0)
(1.0003175088978 -0.0072943734634718 0)
(1.0004316481098 -0.0084629417080662 0)
(1.0005657955633 -0.0096475299645187 0)
(1.0007225902458 -0.010855092059346 0)
(1.0009042691409 -0.012090184605379 0)
(1.0011152785563 -0.013356981657724 0)
(1.001357639443 -0.0146543487276 0)
(1.0016372333485 -0.015984248884647 0)
(1.0019540810069 -0.017341430247895 0)
(1.002316893401 -0.018731715250245 0)
(1.0027216146693 -0.020145915463296 0)
(1.0031838388726 -0.021599444151813 0)
(1.0036906262798 -0.023070839156846 0)
(1.0042725838148 -0.024592823707454 0)
(1.0048959353997 -0.026113411527913 0)
(1.0056236210111 -0.027705728294405 0)
(1.0063744838238 -0.029252674968972 0)
(1.0072823631869 -0.030925321316997 0)
(1.0081619624044 -0.032459229624113 0)
(1.0093019247866 -0.034252525012152 0)
(1.0102912775843 -0.035695874017941 0)
(1.0117561361904 -0.037703011891423 0)
(1.0128001682016 -0.038884945324423 0)
(1.0147978308116 -0.041301714679786 0)
(1.0000007021556 -0.00056721757581247 0)
(1.0000117385782 -0.0016756228540326 0)
(1.0000322337709 -0.0027941166542048 0)
(1.0000639112778 -0.0039325546817197 0)
(1.000108530837 -0.0050913788335186 0)
(1.0001673839912 -0.0062656393778018 0)
(1.0002409125434 -0.0074512676261698 0)
(1.0003300089729 -0.0086500049053657 0)
(1.000435743042 -0.0098677953553679 0)
(1.0005609637154 -0.011113078860888 0)
(1.0007081426885 -0.012391442179064 0)
(1.0008821052394 -0.013707725055692 0)
(1.0010851414932 -0.015060796307582 0)
(1.001323610761 -0.01645278075653 0)
(1.0015977237146 -0.017878086008434 0)
(1.0019168506057 -0.019343233129952 0)
(1.0022769822553 -0.020838740268388 0)
(1.0026948167295 -0.022381797883593 0)
(1.0031571235973 -0.023949890668409 0)
(1.0036965229181 -0.025578870274817 0)
(1.004278009533 -0.027213248219092 0)
(1.0049683491871 -0.028932228787381 0)
(1.0056828999818 -0.030610175237948 0)
(1.0065630120207 -0.03243172271089 0)
(1.0074151071016 -0.034112758524187 0)
(1.0085426444303 -0.036082273898937 0)
(1.0095167440283 -0.037685187419547 0)
(1.0109930540746 -0.039904162357539 0)
(1.0120384333314 -0.041247980885349 0)
(1.0140893791107 -0.043924649153875 0)
(1.0000006579002 -0.00057491451982209 0)
(1.0000075439561 -0.0016956397961672 0)
(1.0000199676754 -0.0028277682021197 0)
(1.0000395991582 -0.0039823484547961 0)
(1.0000682366036 -0.0051596307565463 0)
(1.0001072212302 -0.0063538161661499 0)
(1.0001569958882 -0.0075604298136845 0)
(1.0002184710649 -0.0087818565722651 0)
(1.0002927678155 -0.010025397627819 0)
(1.0003829113492 -0.011301038476885 0)
(1.0004915741611 -0.012615444434843 0)
(1.0006239171998 -0.013974144186993 0)
(1.0007824646279 -0.015376031057415 0)
(1.0009740042334 -0.01682340354642 0)
(1.0011989098636 -0.018310366399942 0)
(1.0014671527586 -0.019844179158619 0)
(1.0017747665387 -0.021415152339801 0)
(1.002139471061 -0.023042319135239 0)
(1.0025477962228 -0.024702254350642 0)
(1.0030342256766 -0.026433980945846 0)
(1.0035627251201 -0.02817873986846 0)
(1.0042035269862 -0.030021760726901 0)
(1.0048691352594 -0.031829296536684 0)
(1.0057073696698 -0.033799206751467 0)
(1.0065182705959 -0.035628818829996 0)
(1.0076170930128 -0.037776177266845 0)
(1.0085622438415 -0.039544964413942 0)
(1.0100308469952 -0.041978070812682 0)
(1.0110662220071 -0.043498247625951 0)
(1.0131468258614 -0.046436268183949 0)
(1.0000006040077 -0.00057912041688266 0)
(1.0000030649059 -0.0017051315766466 0)
(1.0000068783547 -0.002843856088223 0)
(1.0000136252897 -0.0040075360173957 0)
(1.0000251328727 -0.0051961867062099 0)
(1.0000427734536 -0.0064031202790786 0)
(1.0000669754864 -0.0076234463864844 0)
(1.0000986419927 -0.0088602124197559 0)
(1.0001389194175 -0.010122123451729 0)
(1.0001909666269 -0.011420746456351 0)
(1.0002576206109 -0.012763864055308 0)
(1.0003443185835 -0.014157700266978 0)
(1.0004537854318 -0.015601199179916 0)
(1.0005931642752 -0.017096831119218 0)
(1.0007629782536 -0.018638450580855 0)
(1.0009736964365 -0.020234070509515 0)
(1.0012214297806 -0.021873900942684 0)
(1.0015247365221 -0.023578837235404 0)
(1.00187007986 -0.025324733308731 0)
(1.0022933986438 -0.027153748384861 0)
(1.0027582121215 -0.029004194935711 0)
(1.0033371715477 -0.030967102750316 0)
(1.003941588802 -0.032901365025664 0)
(1.0047231283668 -0.035017089605609 0)
(1.0054794008577 -0.036995465363997 0)
(1.0065318500956 -0.039319283019357 0)
(1.007434233059 -0.041259781338014 0)
(1.0088740031583 -0.043905630666357 0)
(1.0098874861037 -0.045616259449493 0)
(1.0119721173238 -0.048813364565145 0)
(1.0000005447786 -0.00058001725679251 0)
(0.99999835542016 -0.0017047073538178 0)
(0.99999313354805 -0.0028433896305055 0)
(0.99998634768558 -0.0040094762520771 0)
(0.99997982356081 -0.0052027335528832 0)
(0.99997494922984 -0.0064155525366905 0)
(0.99997212951665 -0.0076426192398794 0)
(0.99997222796558 -0.0088876396957938 0)
(0.99997639206562 -0.010160747278827 0)
(0.99998785718128 -0.011475095749323 0)
(1.0000095966438 -0.012839624051491 0)
(1.000047242685 -0.014261237355933 0)
(1.0001037046544 -0.015738975776663 0)
(1.0001863656378 -0.01727544689151 0)
(1.0002959220197 -0.0188643417013 0)
(1.0004431639819 -0.020514382768656 0)
(1.0006243945608 -0.022215839695456 0)
(1.0008586812346 -0.023991402672921 0)
(1.0011327663419 -0.025816476613407 0)
(1.0014833352393 -0.027736205458549 0)
(1.0018744296321 -0.029686486727701 0)
(1.0023794705167 -0.031763609054559 0)
(1.0029110423208 -0.033820548432627 0)
(1.0036208707085 -0.036077257275506 0)
(1.0043096624658 -0.038203806848693 0)
(1.0052970010951 -0.040699348874376 0)
(1.0061432632584 -0.042816298674767 0)
(1.0075310991333 -0.045670528841984 0)
(1.0085098847914 -0.047584031492104 0)
(1.0105729694595 -0.051034407652354 0)
(1.0000004782049 -0.00057782860983451 0)
(0.999993478806 -0.0016950470463045 0)
(0.99997891753139 -0.0028275122073934 0)
(0.99995812281983 -0.0039897637462271 0)
(0.99993290328343 -0.005181285588555 0)
(0.99990463884876 -0.0063935247915387 0)
(0.99987371400574 -0.0076207512878782 0)
(0.9998409258859 -0.0088673179408752 0)
(0.99980740674483 -0.010144796846737 0)
(0.99977637752971 -0.011467888410149 0)
(0.99975092913896 -0.012846718537764 0)
(0.9997367720612 -0.014288818938878 0)
(0.99973703138048 -0.015793414559343 0)
(0.99975915149664 -0.01736315901837 0)
(0.99980410686699 -0.018991749991111 0)
(0.99988271482138 -0.0206884465597 0)
(0.9999917082127 -0.022443877431083 0)
(1.0001501587625 -0.024282232877019 0)
(1.0003455760689 -0.026178978797732 0)
(1.0006145321966 -0.028181766949946 0)
(1.0009225666657 -0.030224960887192 0)
(1.0013423832815 -0.032409186301239 0)
(1.0017897861662 -0.034583252870239 0)
(1.002413718737 -0.036974721100257 0)
(1.0030222126673 -0.039246362608827 0)
(1.0039264351973 -0.041908400608639 0)
(1.0047032210645 -0.044202396891563 0)
(1.0060148015583 -0.047258640000349 0)
(1.0069469032984 -0.049384920571492 0)
(1.0089571375038 -0.053074747764709 0)
(1.0000004012209 -0.00057281042874433 0)
(0.99998848010755 -0.0016769344718276 0)
(0.99996439153338 -0.0027974964902375 0)
(0.99992929816976 -0.0039501268541384 0)
(0.99988496150651 -0.0051340247256063 0)
(0.99983272218907 -0.0063396721349201 0)
(0.99977295423081 -0.0075609052534534 0)
(0.99970636516331 -0.008802686756086 0)
(0.99963408718016 -0.010078057751177 0)
(0.99955922194962 -0.011403229110488 0)
(0.99948497664195 -0.01278954796187 0)
(0.99941695289437 -0.014245052139225 0)
(0.99935858040195 -0.015769273603798 0)
(0.99931708410954 -0.017364723847636 0)
(0.99929398068818 -0.019025402635119 0)
(0.9992996180185 -0.020760715251777 0)
(0.99933167780894 -0.022562236449906 0)
(0.99940836057487 -0.024454915850021 0)
(0.99951884046536 -0.026415332483859 0)
(0.99969821952834 -0.028492448579139 0)
(0.99991489833497 -0.030620636167545 0)
(1.0002391197966 -0.032903490615201 0)
(1.0005916056192 -0.035186911938935 0)
(1.0011166290821 -0.037706164628061 0)
(1.0016316983175 -0.040115159072654 0)
(1.002437018838 -0.042940204469888 0)
(1.003130296889 -0.045403960248662 0)
(1.0043451225945 -0.048660959555106 0)
(1.0052162752995 -0.050995290293853 0)
(1.0071421013168 -0.05491007673826 0)
(1.0000003101248 -0.00056530195618851 0)
(0.99998347480168 -0.001651397140554 0)
(0.99994983057746 -0.0027549039155223 0)
(0.99990031675522 -0.0038925329136893 0)
(0.99983664127845 -0.0050633123135168 0)
(0.99976013401401 -0.0062568196603624 0)
(0.99967118375264 -0.0074663895492501 0)
(0.9995703264574 -0.0086974380083847 0)
(0.99945865396662 -0.0099644478095681 0)
(0.99933906186576 -0.01128512583885 0)
(0.99921494589121 -0.012672142184163 0)
(0.99909160607042 -0.014133955215339 0)
(0.99897290643246 -0.01567058140822 0)
(0.99886547232637 -0.017284131519593 0)
(0.99877178300029 -0.018969298541613 0)
(0.99870094320733 -0.02073498412826 0)
(0.99865254038103 -0.02257461857523 0)
(0.9986423222533 -0.024512547821865 0)
(0.99866314040666 -0.026528468759236 0)
(0.99874560516638 -0.028670078532069 0)
(0.99886479456681 -0.030875329116202 0)
(0.99908328304331 -0.033246771895431 0)
(0.99933293358131 -0.035631616591045 0)
(0.99974558864298 -0.03827020984261 0)
(1.0001567498818 -0.040806114355346 0)
(1.0008463075622 -0.043793325376823 0)
(1.0014443208891 -0.046408430797848 0)
(1.0025445493858 -0.049887039976664 0)
(1.0033487180912 -0.052392156072499 0)
(1.0051558300533 -0.056568211037496 0)
(1.000000187049 -0.00055580167661176 0)
(0.99997868380814 -0.0016200649525148 0)
(0.99993581042757 -0.0027022778327358 0)
(0.99987197897366 -0.0038201541751707 0)
(0.99978880334218 -0.0049727016452128 0)
(0.99968782131487 -0.0061488423796339 0)
(0.99956965167757 -0.0073414064243611 0)
(0.99943458843797 -0.0085561177074821 0)
(0.99928346781955 -0.0098088000148131 0)
(0.99911880424815 -0.011118499847243 0)
(0.99894418736026 -0.012499205582136 0)
(0.99876453224594 -0.013959806640392 0)
(0.99858426204087 -0.01550105928139 0)
(0.99840917457396 -0.017124572129921 0)
(0.99824307949868 -0.018826229699859 0)
(0.99809315181594 -0.020613867153854 0)
(0.99796183510162 -0.022483864745833 0)
(0.99786055431894 -0.024458231324243 0)
(0.99778847715529 -0.026522662463404 0)
(0.99776715500655 -0.02871939201917 0)
(0.99778524702437 -0.030996936380752 0)
(0.99788694607994 -0.033447403743504 0)
(0.9980311558748 -0.03593311070321 0)
(0.9983139697448 -0.038682953849218 0)
(0.99862083473297 -0.041347740893213 0)
(0.99916690230628 -0.044499496549986 0)
(0.99967069535594 -0.047253000152275 0)
(1.0006181218497 -0.051012277845309 0)
(1.0013783107299 -0.053601091226942 0)
(1.0030250036589 -0.058306039100636 0)
(0.99999996967169 -0.00054539529224641 0)
(0.99997383183817 -0.0015862412056931 0)
(0.99992228400105 -0.0026458712940146 0)
(0.99984454860435 -0.0037429591264864 0)
(0.99974190520866 -0.0048762417086828 0)
(0.99961631534349 -0.0060337771482888 0)
(0.99946896111262 -0.0072076783534986 0)
(0.99929991247391 -0.008404065797581 0)
(0.99910963718093 -0.0096404426074574 0)
(0.99890023188888 -0.010937399125109 0)
(0.99867522980763 -0.012310331698352 0)
(0.99843907525962 -0.013768538519892 0)
(0.99819659038313 -0.015313512450856 0)
(0.99795285766144 -0.016946188811691 0)
(0.99771282239513 -0.018663940056493 0)
(0.99748192773331 -0.020473409977072 0)