/*--------------------------------*- C++ -*----------------------------------*\
| =========                 |                                                 |
| \\      /  F ield         | OpenFOAM: The Open Source CFD Toolbox           |
|  \\    /   O peration     | Version:  2112                                  |
|   \\  /    A nd           | Website:  www.openfoam.com                      |
|    \\/     M anipulation  |                                                 |
\*---------------------------------------------------------------------------*/
FoamFile
{
    version     2.0;
    format      ascii;
    arch        "LSB;label=32;scalar=64";
    class       volScalarField;
    location    "16.7";
    object      p;
}
// * * * * * * * * * * * * * * * * * * * * * * * * * * * * * * * * * * * * * //

dimensions      [0 2 -2 0 0 0 0];

internalField   nonuniform List<scalar> 
22000
(
0.036935303012031
0.036911748999142
0.036863292384952
0.036788681506081
0.036687378063378
0.036559404485365
0.036405022147986
0.036224497056299
0.036018018231715
0.035785716482346
0.03552770964285
0.035244138877738
0.034935177427662
0.034601032068079
0.034241930930887
0.033858131031224
0.033449904094327
0.033017560935732
0.032561419708626
0.032081858487057
0.031579240602626
0.031054031168298
0.030506626028111
0.029937612334399
0.029347380542664
0.028736711356209
0.028105898139431
0.027456065140786
0.026787180951607
0.026101008163719
0.037373515955899
0.037348830217599
0.037299075339467
0.037223091575265
0.037120287617274
0.036990602322964
0.036834239212562
0.036651435590703
0.036442365508633
0.036207147320625
0.035945882952935
0.035658694869509
0.035345734329127
0.035007186760924
0.034643256251838
0.03425417927412
0.033840201917369
0.033401617282235
0.032938714714659
0.032451860666736
0.031941382736178
0.03140774746938
0.030851298604766
0.030272650342583
0.029672102117521
0.029050509312642
0.02840797764013
0.027745781914453
0.027063439998739
0.026362880212571
0.038175767543208
0.038150419286152
0.038099401291032
0.038021644548815
0.037916612622684
0.037784240408722
0.037624695986866
0.037438176093264
0.037224818765413
0.036984710995715
0.036717922716678
0.036424543033884
0.03610468492097
0.035758495641721
0.035386135601249
0.034987802568092
0.034563694639917
0.034114069860933
0.033639163157878
0.033139316763059
0.032614791513286
0.03206605411687
0.031493353112132
0.030897356352755
0.030278202454531
0.029636911694639
0.028973267925999
0.02828891760941
0.027582588108366
0.026856722315453
0.039286943123
0.039260958608407
0.039208661420289
0.039128978164249
0.039021380182383
0.038885797600098
0.03872237413104
0.038531268512162
0.038312574127987
0.038066332025232
0.037792563320082
0.0374913069942
0.037162619575256
0.036806591844073
0.036423319115427
0.036012940184547
0.035575580310154
0.035111442500085
0.034620678871733
0.034103590738267
0.033560337624113
0.032991379439456
0.032396823198782
0.031777403379332
0.031133021546137
0.030464915011962
0.029772391912162
0.029057583061019
0.028318049235508
0.02755688266668
0.040658753719347
0.040632129047243
0.040578536246075
0.040496882202933
0.040386627737878
0.040247685096609
0.04008016526108
0.039884180714004
0.03965976848261
0.039406908368415
0.039125554271266
0.038815675323419
0.038477249829867
0.038110289932313
0.037714800731726
0.037290837757232
0.036838424563748
0.036357684164431
0.035848652674857
0.035311567666676
0.03474644775326
0.034153730055816
0.033533327472724
0.032886042713559
0.032211461017372
0.031511074598367
0.030783574258754
0.030031686701515
0.029251498595207
0.028446928516616
0.042248139053618
0.042220936856341
0.042166170773893
0.042082729056942
0.041970056942264
0.041828037953357
0.041656736924378
0.04145620569383
0.041226409121086
0.040967248130066
0.040678589190241
0.040360309590048
0.040012284836875
0.03963442292902
0.039226610150975
0.038788790464926
0.038320852861333
0.037822810415297
0.037294545487913
0.036736202786163
0.036147615620322
0.035529175060428
0.03488054472461
0.03420258694216
0.033494492552384
0.032758035335523
0.031991159219414
0.031197276025048
0.03037071399795
0.029516327931825
0.044016143510708
0.043988511687067
0.04393286924554
0.043848084829403
0.043733581293739
0.043589202654072
0.043414954347222
0.04321081270822
0.042976653845884
0.042712281388013
0.042417453293841
0.042091931687747
0.041735462884585
0.041347822716994
0.040928747224217
0.040478036927488
0.039995409806721
0.039480734329266
0.038933697104122
0.038354314511919
0.037742185725665
0.037097623479993
0.036419982405041
0.035710164621928
0.034966887651907
0.034192212639609
0.033383210659329
0.032544030780214
0.031666972511359
0.030757860651199
0.045927039653153
0.045899204956905
0.045843146358119
0.0457577091109
0.045642285793116
0.045496670539394
0.045320796686732
0.045114550351588
0.044877702150053
0.044609939745943
0.044310891263591
0.043980179867067
0.043617395531349
0.043222152456194
0.042794003190897
0.042332570108583
0.041837360778711
0.041308059952674
0.040744112623376
0.040145364978331
0.039511128591301
0.038841596623123
0.038135751355657
0.037394499401672
0.036616003380521
0.035802595972914
0.034950355295227
0.034064181746567
0.033134100786086
0.032166865352437
0.047947807881811
0.047920065691923
0.047864184746386
0.047778990290568
0.047663840873637
0.047518472077612
0.047342732905936
0.047136404444348
0.04689913473744
0.046630476368555
0.046329906375709
0.045996885386064
0.045630820088251
0.045231133299719
0.044797160380671
0.044328309344712
0.04382383636013
0.043283199970952
0.042705554878377
0.042090529313408
0.041437090364809
0.040745260543403
0.040013582479433
0.039242918405701
0.038430794853313
0.037579775137183
0.036684832988923
0.035751593602976
0.034767589106002
0.033740372166165
0.050047820321766
0.050020523255168
0.049965527290402
0.049881646720602
0.049768205930714
0.049624874036193
0.04945140377748
0.049247457704363
0.049012546733773
0.048746071948362
0.048447339441602
0.048115624054055
0.047750123098702
0.047350039123756
0.046914457610451
0.04644253605788
0.04593323841372
0.045385752706622
0.044798893583367
0.04417201889904
0.043503692145084
0.042793705862752
0.042040094554478
0.041243611017444
0.040401065064782
0.039515185751026
0.038579741289953
0.037601009477466
0.036563840393258
0.035476361951785
0.052198741303786
0.052172286086269
0.052118973099209
0.052037617415988
0.051927511009186
0.05178825062468
0.051619482679368
0.051420739705085
0.051191383296951
0.050930649539078
0.050637657977296
0.050311478754665
0.049951076342726
0.049555405552988
0.049123271481265
0.048653546558578
0.048144863766675
0.047596096408888
0.047005670358052
0.0463726177621
0.045695039525086
0.044972430957763
0.044202249326049
0.043385059604025
0.042516877751391
0.041600505641665
0.040628417060661
0.039607422863373
0.038519532898059
0.037373123639634
0.05437455527685
0.054349369535328
0.054298599364014
0.054221075594444
0.05411606224566
0.053983079663827
0.053821660438136
0.053631198890643
0.053410898931154
0.05315982217514
0.052876890095326
0.052560953584761
0.052210726774344
0.0518248945677
0.051401954883435
0.050940463369448
0.050438687105965
0.049895142478008
0.049307821233854
0.0486753737569
0.047995381658786
0.047266970455575
0.046486953858628
0.04565561573503
0.04476810544211
0.043827179978672
0.042823943934581
0.041765571448362
0.040631110676316
0.039428753591457
0.056551649604699
0.056528175673434
0.056480840085947
0.056408505964323
0.056310415443715
0.056186011347186
0.056034708323059
0.055855758294439
0.055648203849331
0.055410927750748
0.0551426473722
0.054841985384546
0.054507393915096
0.054137272229243
0.053729792263815
0.053283166634716
0.052795266990108
0.05226421451165
0.051687527152543
0.051063419113655
0.050388901347331
0.049662653448053
0.048880783824826
0.048043191502297
0.047144094370507
0.046186059467281
0.045158764364947
0.044069528205172
0.042894352386702
0.041640702637534
0.058708911623106
0.058687592133727
0.058644583389939
0.058578800102042
0.058489471238955
0.058375963161526
0.058237571971747
0.058073407638948
0.057882353132519
0.057663113828953
0.057414203407236
0.057134014077117
0.05682073163974
0.05647246122284
0.056087037995766
0.055662314161216
0.055195745500162
0.054685025460019
0.054127166338021
0.053519895805587
0.052859610669651
0.05214446842189
0.051369819162358
0.050535063427229
0.049633433030514
0.048667138322949
0.047624390745171
0.046512386378229
0.045304037925697
0.044005435182775
0.060827806512569
0.060809069080184
0.060771251861062
0.060713341054405
0.060634562326189
0.060534209892142
0.060411464725082
0.060265300015401
0.060094446442167
0.059897439652758
0.059672596961071
0.059418085348273
0.059131828290313
0.058811636837598
0.058455007991799
0.058059425006472
0.057621918495801
0.057139731714384
0.056609349605966
0.056027969381116
0.05539134092423
0.054697025778571
0.053939573787335
0.053117769184077
0.05222381797587
0.051259385908886
0.050211202715774
0.049086028451397
0.047853687756124
0.046518137619031
0.062892417290963
0.062876662522417
0.062844846982938
0.062796050237391
0.062729506702914
0.06264444457653
0.062539936638093
0.062414829442013
0.062267714371863
0.062096971220934
0.061900735207163
0.061676960996597
0.061423322532159
0.061137346274509
0.060816200117116
0.06045700020547
0.060056354141525
0.059611043613683
0.059117018866631
0.058570912317613
0.057967807154192
0.057304601133576
0.056575016187392
0.055777099474633
0.054902008778182
0.053950664811119
0.05290832883729
0.051780971403063
0.050535381442345
0.049172521564687
0.064889433468744
0.064877022523212
0.064851943514534
0.064813390187471
0.064760618026089
0.06469279800986
0.064608905116076
0.064507673804103
0.064387574638648
0.064246851479474
0.064083478377868
0.063895218008918
0.063679516026059
0.06343363331759
0.063154428537445
0.062838664098109
0.062482539297455
0.062082375195393
0.061633593962563
0.061132243047173
0.060572735051848
0.059951246388463
0.059260659866239
0.058498168195632
0.057653875885757
0.056727744463433
0.055703613124052
0.05458628473439
0.053339630439467
0.051960661915555
0.066808087873145
0.066799335484542
0.066781632995665
0.066754312780296
0.066716664835143
0.066667811332892
0.066606642042159
0.066531798043341
0.066441652297957
0.066334338191861
0.066207695895418
0.066059323599401
0.065886467727293
0.065686151676268
0.065454954798616
0.06518931119406
0.064885039225951
0.064538014816106
0.064143152311336
0.063695909508897
0.063190040138833
0.062620959454731
0.06198071705895
0.061265549110426
0.060464518527028
0.059576408346486
0.058583696104158
0.057489611919677
0.056255319801081
0.054872875593872
0.06864003635127
0.06863520528617
0.06862541537915
0.068610161101393
0.06858877936523
0.068560354442548
0.068523706438562
0.068477404329985
0.068419749740632
0.068348795354566
0.068262280380933
0.068157672560613
0.068032055081562
0.067882250381687
0.067704597286549
0.067495238851547
0.067249651185244
0.066963297554046
0.066630617149173
0.066246494881963
0.065804045239581
0.065297909072867
0.064719311820987
0.064063471681074
0.063318430015399
0.062481620162244
0.061534196325284
0.060477375857518
0.059269833910491
0.057897677509095
0.070379200215411
0.070378498635898
0.070377047151088
0.070374522463074
0.070370321514425
0.070363502885868
0.070352834969022
0.070336838387702
0.070313771734108
0.070281639526541
0.070238116788303
0.070180579410494
0.070105989613696
0.070011013376556
0.069891796195321
0.069744238263709
0.069563521711977
0.069344746937165
0.069081920545312
0.068769400944121
0.068399684819173
0.067966670046249
0.067460734189068
0.066876088681
0.066199700394068
0.065427675883307
0.064539810309082
0.06353507071836
0.062369484441031
0.061022135771835
0.072021551990119
0.072025145464874
0.072032364940867
0.072043075009411
0.072056740669211
0.072072411647491
0.072088828143622
0.072104486762114
0.072117635006789
0.072126267386973
0.072128032701302
0.07212025136612
0.072099810726696
0.072063271303146
0.072006643012191
0.071925639927782
0.071815211138827
0.071670156934816
0.071484107145813
0.071250966648385
0.070962642631812
0.070612386104358
0.070189656196587
0.069687789210253
0.069092366817422
0.068398505390614
0.067584186629067
0.066647088262094
0.065539493753354
0.064232842080382
0.073564872732215
0.073572888913407
0.073589035576318
0.073613357400477
0.073645381781668
0.073684159055591
0.073728434738565
0.073776704713428
0.073827233116668
0.073878054949104
0.073926833966814
0.073970864135519
0.074007005835749
0.074031765559921
0.074041085970328
0.074030549431428
0.073994953411762
0.073928856832618
0.07382560644003
0.073678718119483
0.073479594218038
0.073220945520226
0.072891307509974
0.072483388410975
0.07198087173386
0.071378453034183
0.070650428988572
0.069796121610311
0.068761054338168
0.067515420173119
0.075008527405222
0.075020996111642
0.075046201030026
0.075084377242915
0.075135101547784
0.075197382793934
0.07526999616225
0.075351519579281
0.075440251461002
0.075534293564019
0.075631343690535
0.075728698289759
0.075823248116193
0.075911496777775
0.075989396936911
0.076052438075817
0.076095365692716
0.076112511762807
0.076097092390495
0.076042202070681
0.075938984029361
0.075779493645608
0.075551731289926
0.075247676609271
0.074849449496966
0.074351468727249
0.073722067338175
0.072963600909063
0.072005974390145
0.07084234998152
0.076353443923546
0.07637015408264
0.076404165833599
0.076456103330101
0.076525619404554
0.076611559522709
0.076712532164954
0.076827415785336
0.076954801869939
0.077092803893285
0.077239030862856
0.077390806893736
0.077545117430813
0.077698487636676
0.077846953390662
0.077985947077282
0.078110284636043
0.078214036284364
0.078290477758497
0.078332072741644
0.078330164720693
0.078275497578772
0.078156718582106
0.077963387405036
0.077679250551744
0.077294988466194
0.076779873926588
0.076128961807212
0.075251981008553
0.07415094412615
0.077602494386601
0.077623181756254
0.077665035072236
0.077729799865605
0.077817335621607
0.077926385257715
0.078054930905148
0.078201796113426
0.078366662681909
0.078547831651449
0.078742643416772
0.07894847876686
0.079162510648312
0.079381267651576
0.079600868940758
0.079816765799356
0.080023987448619
0.080216442587375
0.080387674352795
0.080529442527928
0.080633759356776
0.080689447703237
0.080687228434434
0.080611531852555
0.080452944993088
0.080189118801429
0.079811813700109
0.079283021089885
0.078557253097697
0.077458007488073
0.025440394861579
0.024808629836964
0.024163255461737
0.02350549021148
0.02283649341838
0.022157165572735
0.021468210084461
0.020770267644817
0.020064013914396
0.019350191550481
0.018629600066176
0.017903073105462
0.017171462267164
0.016435630348624
0.015696450885537
0.014954808902972
0.014211601865095
0.013467738228002
0.01272413507858
0.011981715609685
0.011241408283247
0.010504147853503
0.0097708815933363
0.0090425777394387
0.0083202126121804
0.0076045448804613
0.0068962899406322
0.0061963207681347
0.0055055570918667
0.004824879590629
0.004155107384594
0.0034970081897924
0.0028513097910864
0.0022187094206834
0.0015998709941869
0.00099542632149412
0.00040596519009452
-0.00016795746238564
-0.00072583828483056
-0.0012672046729993
-0.0017916498432702
-0.0022987813531487
-0.0027883012004463
-0.0032598878375042
-0.0037133779958517
-0.0041484971521638
-0.0045652766667088
-0.0049634478322353
-0.0053434282347421
-0.0057049868241502
0.02569141441513
0.025051756503679
0.02439650189629
0.023728385882946
0.023049232039972
0.022359881811661
0.021660700084435
0.020952031552429
0.020234406061724
0.019508534819752
0.018775229568259
0.018035336625339
0.017289710063392
0.016539211740151
0.015784721168942
0.015027142691744
0.014267406319405
0.013506464397981
0.012745286691579
0.01198485569548
0.011226160296261
0.010470186846324
0.0097179013596125
0.0089702249168002
0.0082280320785747
0.0074924448826642
0.0067646197583285
0.0060454981033529
0.0053359332358903
0.0046367756816565
0.0039488812725941
0.003273094112798
0.0026102276997529
0.0019610603966802
0.0013263253373093
0.0007067179534507
0.00010287951156739
-0.0004845826644296
-0.0010551302297904
-0.0016082439400623
-0.0021435024294163
-0.0026604658478023
-0.0031588536511228
-0.0036382765230855
-0.0040986398303468
-0.0045395279101211
-0.0049611115474553
-0.005362720952863
-0.0057448543444798
-0.0061056988564908
0.026162859675185
0.025500862024784
0.024818850617053
0.024122980500184
0.023416699180505
0.02270090215603
0.021975393283407
0.021240032616306
0.020495163882618
0.01974152954253
0.018980041742134
0.018211627205505
0.017437181604763
0.01665758631568
0.015873738856208
0.015086570853268
0.014297049644195
0.013506170532715
0.012714947907013
0.011924408580491
0.011135587422967
0.010349525253595
0.0095672712511215
0.0087898922276408
0.0080184826927881
0.0072540824177286
0.0064976892519076
0.0057502992269087
0.005012884327948
0.0042863911122504
0.0035717404109799
0.0028698275857615
0.0021815102691074
0.0015076104403033
0.00084889749865821
0.00020610504568852
-0.00042010006420639
-0.0010290751077833
-0.0016202702147619
-0.0021931263090133
-0.002747232357736
-0.003282089716466
-0.0037974701859046
-0.0042928712880526
-0.0047683329946196
-0.0052231779026513
-0.0056578549395243
-0.0060709633327615
-0.0064632704792141
-0.0068301399275222
0.026829957043862
0.026132328848855
0.025408444145224
0.024669901587445
0.023922576491063
0.023167329976422
0.022403041021375
0.021628817927453
0.020844730696555
0.020051572410751
0.019250393604842
0.018442215895848
0.017627964733471
0.01680851535416
0.015984756068894
0.015157622671477
0.014328100770358
0.013497213107602
0.012666006470072
0.011835544203164
0.01100690250263
0.010181168336752
0.0093594356665833
0.0085427984460157
0.0077323384452006
0.0069291295499902
0.0061342385140897
0.0053487151678727
0.0045735876855043
0.0038098600793021
0.0030585037513833
0.0023204602382357
0.0015966280858017
0.00088787357689709
0.00019500528695692
-0.00048119520287168
-0.0011400264519261
-0.0017807917040654
-0.002402917852094
-0.0030057780139579
-0.0035889633899612
-0.0041518725561505
-0.004694334595573
-0.0052156591387838
-0.005716061489636
-0.0061944512403722
-0.0066516554162887
-0.0070851112545808
-0.007495835995223
-0.0078745531464424
0.027678437979925
0.026933911847832
0.026154927537283
0.025360618705556
0.024560072710479
0.023753968838859
0.022939856969611
0.022115820793617
0.021281582850387
0.020438022904592
0.019586379814923
0.018727791172124
0.017863206084157
0.016993476956995
0.016119467394351
0.015242107008999
0.014362393514788
0.01348137160754
0.012600113427424
0.011719708724083
0.010841260606707
0.009965883200818
0.0090946982808923
0.0082288314483862
0.007369407607731
0.0065175485290218
0.0056743665907328
0.0048409593334776
0.0040184016644403
0.0032077456418329
0.0024100098820559
0.0016261856307782
0.00085721824547076
0.00010402659092687
-0.0006325349414981
-0.0013516264877114
-0.0020525053181396
-0.0027344063446082
-0.0033967282756143
-0.0040387547997528
-0.0046600800249009
-0.0052599635639659
-0.0058383072310724
-0.0063941628353959
-0.0069279694116722
-0.0074380681744096
-0.0079257730314864
-0.0083869414787104
-0.0088229296790983
-0.009218232760113
0.028699413616481
0.027897898633394
0.027051504135246
0.026189199012787
0.025324114132999
0.024456565369584
0.023582337950957
0.022698216819127
0.021803522179441
0.020899276522308
0.019986968489495
0.019067878137646
0.01814297515391
0.017213074417025
0.016279002094009
0.015341674465479
0.014402097179202
0.013461333211258
0.012520475210599
0.011580633307282
0.010642931939291
0.009708509420444
0.0087785159011017
0.0078541104245667
0.0069364550261904
0.0060267083929697
0.005126020013109
0.0042355272519393
0.0033563463039715
0.0024895737514382
0.001636272789012
0.00079748384294686
-2.5801302284237e-05
-0.00083260944230696
-0.001622040193496
-0.0023931914653451
-0.0031452793515661
-0.0038774621416565
-0.0045891115750759
-0.0052794050183941
-0.0059479457402538
-0.0065938217717983
-0.0072170297125165
-0.0078162978273169
-0.0083923499679475
-0.0089428112360296
-0.009469616862695
-0.0099666242745674
-0.010435611965182
-0.010853060000326
0.029887050048371
0.029019283598172
0.02809377414431
0.027151888745094
0.026211672518776
0.025272829851778
0.024328888356925
0.023375047667343
0.022410185094382
0.021435538630069
0.020452916210286
0.019463765389378
0.01846906856077
0.017469586213128
0.016466094140306
0.015459488612942
0.014450780273627
0.013441047200184
0.012431397981436
0.01142295796298
0.010416867578717
0.0094142838813763
0.0084163791694064
0.0074243379869183
0.0064393500422754
0.0054626046433077
0.0044952840972455
0.0035385614456887
0.0025935900307584
0.0016615078064038
0.00074341966927466
-0.00015958633998104
-0.0010464737948044
-0.0019162144617367
-0.0027678628290636
-0.0036004508284881
-0.0044131535875534
-0.0052050437141696
-0.0059754675780028
-0.0067234783099283
-0.0074486963312974
-0.0081500034166471
-0.0088275173232731
-0.0094795719903154
-0.010107245501622
-0.010707284095317
-0.011282389558693
-0.011823947761826
-0.012334224415525
-0.012779665840877
0.031238053923989
0.030295464653532
0.029279580666724
0.028247035701736
0.027221697060444
0.026202326162088
0.025179632957186
0.024146932485361
0.023102637676034
0.022048294189152
0.020986105100117
0.01991770887182
0.018844089880828
0.017765935115547
0.016683957484542
0.015599028722902
0.014512162843537
0.013424451175124
0.012337014651574
0.011250988406575
0.010167522715161
0.0090877870242215
0.0080129693429792
0.0069442734458789
0.0058829111059707
0.0048300970162137
0.0037870411665899
0.0027549478253631
0.0017350032248545
0.0007283827999415
-0.00026377106062802
-0.0012403256140586
-0.0022002030812417
-0.0031423211031881
-0.0040656913339389
-0.0049692772278973
-0.0058522153577182
-0.0067134853967178
-0.0075524130458614
-0.0083679109907518
-0.0091596291851068
-0.009926208936439
-0.010667921486254
-0.011382631995346
-0.012071851716485
-0.012731270703404
-0.013364518958015
-0.013959993443818
-0.014520525112365
-0.015000305274298
0.03275080877403
0.03172539740262
0.030608195548625
0.029474308535913
0.028354362372041
0.027245741937642
0.026135706315411
0.025015381360308
0.023882721298062
0.022739694925595
0.021588984143231
0.020432437609876
0.019271024602155
0.018105338562438
0.016936019180978
0.015763911496259
0.014590033659837
0.01341548894482
0.012241406457065
0.011068925594154
0.009899200367336
0.0087334064451519
0.0075727415923694
0.0064184229975324
0.0052716785570994
0.0041337417520597
0.0030058432968602
0.0018892119653492
0.00078506027644875
-0.00030540467367471
-0.0013810087171241
-0.0024405793087672
-0.0034830029231674
-0.0045071463256422
-0.0055119834897385
-0.0064964099244288
-0.0074595291925275
-0.0084002233135969
-0.0093178059390621
-0.010211034999872
-0.011079607432382
-0.011921889241401
-0.012738344685578
-0.013526289839047
-0.014287760390121
-0.015017196165232
-0.015719340712083
-0.01637903747284
-0.016999769272796
-0.017520984635951
0.034424645924461
0.033308894584368
0.032079669906737
0.03083410802687
0.029610534115011
0.028404401044145
0.027198811450463
0.02598240289036
0.024752713415768
0.023512275757082
0.022264337250746
0.021010969245995
0.019753103835479
0.018491218886294
0.017225872367018
0.015957883853199
0.014688277743683
0.013418168682729
0.012148690356422
0.010880980601941
0.0096161907256601
0.0083554960650173
0.0071000972612507
0.0058512176713594
0.0046100940365202
0.0033779712825281
0.0021560930715672
0.00094570398021171
-0.00025196642600976
-0.0014356881488468
-0.0026042637451595
-0.0037564881485914
-0.00489121975354
-0.006007280635147
-0.0071036152778703
-0.0081790547369366
-0.0092326787405591
-0.010263270120623
-0.011270143311481
-0.012251889362103
-0.013208275543614
-0.014137358093586
-0.015039844678285
-0.015912416952837
-0.016757746433303
-0.017568807553505
-0.018351674220756
-0.019086997819186
-0.019779011552775
-0.020349610481513
0.036259213967258
0.035046041306559
0.033694314458837
0.032327114479558
0.030991375508707
0.029679915330206
0.028370904518442
0.027050217186666
0.025715067398314
0.024368719844076
0.02301507464868
0.021656426919121
0.020293640349783
0.018927055833858
0.017557145890712
0.01618470937217
0.014810781509093
0.013436487858039
0.012062961926691
0.010691333959871
0.0093227463832106
0.007958367847094
0.00659939484806
0.0052470482835095
0.0039025632220449
0.0025671846936561
0.0012421601329826
-7.12582114502e-05
-0.0013718334167272
-0.0026583243475361
-0.0039295227070803
-0.0051842028940646
-0.0064212072499962
-0.0076393229512271
-0.0088374765318759
-0.010014442541082
-0.011169290578036
-0.012300706834459
-0.013408024976501
-0.014489660017853
-0.015545480697885
-0.016573199581325
-0.017573829897071
-0.018543328109749
-0.01948513556144
-0.02039052672278
-0.021267173232063
-0.022090834161984
-0.022866645158029
-0.023495766806579
0.038253986700584
0.036936724231212
0.035452271293891
0.033953904627274
0.032497994433988
0.03107385056854
0.029653879235623
0.028220962209243
0.026772144292354
0.025311616780213
0.023844012370483
0.022371835659438
0.020895844579138
0.01941622292671
0.017933359394499
0.016448042414682
0.014961324112592
0.013474340480303
0.011988220197045
0.01050407904506
0.0090230433355712
0.0075462681372481
0.0060749390140829
0.0046102679923419
0.0031534801626937
0.0017058042322309
0.00026847399459975
-0.0011572651059254
-0.002570178858455
-0.0039690254711352
-0.0053526004537348
-0.0067196746976145
-0.0080690915342956
-0.0093996193967465
-0.010710184634256
-0.011999518488092
-0.013266700259042
-0.014510327537555
-0.015729779541023
-0.016923290300274
-0.018090871644212
-0.019229858610351
-0.02034164801219
-0.021421373692707
-0.022473406397225
-0.02348707073656
-0.024471938594865
-0.025398134788625
-0.026271900024187
-0.026970171026576
0.040407805146637
0.038980207031976
0.037353141574322
0.035714629295648
0.034131159036319
0.03258746486569
0.031049318578929
0.029496459125495
0.027925994321195
0.026343260164179
0.024753687195859
0.023159954777627
0.021562668884081
0.019961841976463
0.018357790148761
0.016751306730184
0.015143469057357
0.013535422990432
0.011928286697787
0.010323155297816
0.0087211325792676
0.0071233514972397
0.0055309763105064
0.0039451975368558
0.0023672273214092
0.00079826822206185
-0.00076047331665343
-0.0023077833789765
-0.0038424541965019
-0.0053632605811537
-0.0068690176843559
-0.0083585112074765
-0.0098306078841964
-0.011284079025065
-0.012717875674774
-0.014130707129495
-0.015521691618396
-0.016889353284211
-0.018233154954503
-0.019551149532577
-0.02084355017004
-0.022107277185638
-0.023344214633699
-0.024548551850406
-0.025725793458069
-0.026863002882873
-0.027972023702433
-0.029016477242774
-0.030003973205197
-0.030783606999123
0.042718529669555
0.041174792468747
0.039395682401171
0.037608745668782
0.03589104733532
0.034221465854206
0.032558263999181
0.030877999593343
0.029178164864113
0.027465475106643
0.025746197440275
0.024023126961991
0.02229666846064
0.020566657335668
0.018833358237646
0.017097591669421
0.015360469257057
0.013623145375321
0.011886722682373
0.010152270244515
0.0084208644748966
0.006693611491794
0.0049716474371668
0.0032561266975955
0.0015482039402689
-0.00015092982623778
-0.0018401055837392
-0.0035181554329599
-0.0051839250698491
-0.0068362374666365
-0.0084739568171995
-0.010095905943442
-0.011701002463303
-0.01328804727564
-0.014856052407852
-0.016403732073625
-0.017930285834733
-0.019434187517969
-0.020915039011232
-0.022370718908676
-0.023801724742262
-0.025204526895628
-0.026581639906656
-0.027926176057069
-0.029245046287825
-0.030522672955258
-0.031773675650769
-0.032954030312008
-0.034072973754186
-0.03494653995254
0.045182735544282
0.043517543109227
0.041577570002927
0.039634816243743
0.037777066884436
0.035975837593706
0.034181045511705
0.032366185219569
0.030529553933966
0.02867948385167
0.026823078826351
0.024963163596796
0.023099891146856
0.021232929468642
0.019362527522498
0.017489559527028
0.015615181023943
0.013740552961714
0.011866757826713
0.0099948347015798
0.0081258285070888
0.0062608129803787
0.00440088361685
0.0025471516335429
0.00070072527352118
-0.0011372715393525
-0.0029657331647112
-0.0047835456572852
-0.0065896243112538
-0.008382867411201
-0.01016222664425
-0.011926591706911
-0.013674973473425
-0.015406231714157
-0.01711949053111
-0.018813498775678
-0.020487601338496
-0.022140245448266
-0.023771254788036
-0.025378340054079
-0.026962404094076
-0.028519426516658
-0.030052751313012
-0.031554265165913
-0.033032640558339
-0.034469275336517
-0.035882259508521
-0.037218959176032
-0.038491155761825
-0.039477308203704
0.047795503510032
0.046004079456059
0.043895226812532
0.04179035728156
0.039787702996418
0.03784968429974
0.035917133737974
0.033960796772676
0.031980296857601
0.029985805757526
0.027985210902824
0.025981252988697
0.023973791340911
0.02196235658624
0.019947230989183
0.017929374584325
0.015909994945106
0.013890256866903
0.011871220403962
0.0098538946667851
0.0078392927162325
0.0058284513596678
0.0038224192932013
0.0018222506555032
-0.00017101330241603
-0.0021563287787151
-0.0041326714033037
-0.0060990133355043
-0.008054378138503
-0.0099977647380663
-0.011928250561496
-0.013844825474659
-0.015746650009548
-0.017632674790296
-0.019502209092595
-0.021354062397655
-0.02318782012468
-0.025001919128188
-0.026796529745782
-0.028569185900006
-0.030321375237796
-0.032048515164364
-0.033755075050096
-0.035431500907357
-0.037088751126764
-0.038704701651311
-0.040301826092082
-0.041817549811623
-0.043267455768156
-0.044386548341672
0.05055025076398
0.048628442969423
0.046343722050678
0.044071753669709
0.041920426966639
0.039841126222779
0.037765032504654
0.035660699870673
0.03352969135463
0.03138419470713
0.029232758872955
0.027077904659978
0.024919174610251
0.022756020369228
0.020588823156165
0.018418661372174
0.0162468008743
0.014074408661341
0.011902521557828
0.0097321219696845
0.0075641937520813
0.0053997356820618
0.0032397438074262
0.0010852033017316
-0.0010629283422542
-0.0032037024812849
-0.0053362109421278
-0.0074595474797515
-0.0095728741147441
-0.01167531949688
-0.013766133858527
-0.015844452673217
-0.017909654506733
-0.019960824285158
-0.021997547893807
-0.024018732081066
-0.026024332464128