/*--------------------------------*- C++ -*----------------------------------*\
| =========                 |                                                 |
| \\      /  F ield         | OpenFOAM: The Open Source CFD Toolbox           |
|  \\    /   O peration     | Version:  2112                                  |
|   \\  /    A nd           | Website:  www.openfoam.com                      |
|    \\/     M anipulation  |                                                 |
\*---------------------------------------------------------------------------*/
FoamFile
{
    version     2.0;
    format      ascii;
    arch        "LSB;label=32;scalar=64";
    class       volVectorField;
    location    "16.7";
    object      U;
}
// * * * * * * * * * * * * * * * * * * * * * * * * * * * * * * * * * * * * * //

dimensions      [0 1 -1 0 0 0 0];

internalField   nonuniform List<vector> 
22000
(
(1.0000011323627 -2.6961075107891e-05 0)
(1.00002789911 -8.0459043760442e-05 0)
(1.0000793000627 -0.00013395069224388 0)
(1.0001564601596 -0.0001871419024659 0)
(1.0002596881356 -0.00023993172186016 0)
(1.0003888083141 -0.00029238407685461 0)
(1.0005434966236 -0.00034454200614741 0)
(1.0007234648965 -0.00039638632187033 0)
(1.0009284852621 -0.00044785264907573 0)
(1.0011583760262 -0.00049889683686934 0)
(1.0014129483102 -0.00054947030238708 0)
(1.0016920093873 -0.00059957333030819 0)
(1.0019953216334 -0.00064915567548196 0)
(1.0023226623274 -0.00069824823356471 0)
(1.0026737511953 -0.0007467529368638 0)
(1.0030483653049 -0.00079475922485751 0)
(1.0034461719961 -0.00084205911802447 0)
(1.0038669640649 -0.00088888135803918 0)
(1.0043103090626 -0.00093477158771879 0)
(1.0047760461523 -0.00098029461292573 0)
(1.0052635579011 -0.00102444512304 0)
(1.0057728109753 -0.001068584566322 0)
(1.0063028482329 -0.0011104597889561 0)
(1.0068539480931 -0.001153300175892 0)
(1.0074245259445 -0.0011920087508476 0)
(1.0080155729447 -0.0012341455242522 0)
(1.0086243283722 -0.0012680704208615 0)
(1.0092532976691 -0.0013112859460476 0)
(1.0098974672031 -0.0013370560007653 0)
(1.0105624313522 -0.0013856706543441 0)
(1.000000565076 -7.9186632452826e-05 0)
(1.0000271010639 -0.00023646294365768 0)
(1.00007838036 -0.00039391274994535 0)
(1.0001554637462 -0.00055058419918381 0)
(1.0002587133716 -0.00070613435990901 0)
(1.000388031661 -0.00086074826579421 0)
(1.0005431423918 -0.0010145594600903 0)
(1.0007237879958 -0.0011675131375815 0)
(1.0009297496649 -0.0013194174698291 0)
(1.0011608671252 -0.0014701389881133 0)
(1.0014169536512 -0.0016195333092945 0)
(1.0016978546941 -0.0017675999490602 0)
(1.0020033255982 -0.0019141939906286 0)
(1.0023332106276 -0.0020594068664492 0)
(1.0026871927929 -0.0022029577720829 0)
(1.0030651720652 -0.0023451067169442 0)
(1.0034667070253 -0.0024852538788629 0)
(1.0038918278179 -0.0026240558611954 0)
(1.0043398282302 -0.0027602015017331 0)
(1.0048110290472 -0.0028953084209998 0)
(1.0053041781849 -0.003026485674399 0)
(1.0058202551846 -0.0031576280068699 0)
(1.006356886252 -0.0032822802588716 0)
(1.0069165163157 -0.0034096628290918 0)
(1.007494456269 -0.0035252280052822 0)
(1.0080963572912 -0.003650506241115 0)
(1.0087127312037 -0.0037523979657044 0)
(1.0093561217061 -0.0038805925123983 0)
(1.010007093299 -0.0039593439677256 0)
(1.0106929159681 -0.0041026243057804 0)
(1.0000006005838 -0.00012878784754655 0)
(1.0000277662381 -0.00038465456455494 0)
(1.0000801620858 -0.00064103988928984 0)
(1.0001587535154 -0.00089629282566556 0)
(1.0002638349858 -0.0011498074369839 0)
(1.0003953086007 -0.0014018986135796 0)
(1.0005529281084 -0.0016528043357216 0)
(1.0007364824518 -0.0019024452548973 0)
(1.0009457788209 -0.0021505099563101 0)
(1.0011807002247 -0.0023967844924665 0)
(1.001441070609 -0.0026410352697897 0)
(1.0017267985637 -0.0028832721005708 0)
(1.0020376340704 -0.0031232640648889 0)
(1.0023735310753 -0.0033611823212027 0)
(1.0027341238176 -0.0035965716502139 0)
(1.0031195126356 -0.0038298864784415 0)
(1.0035290939972 -0.004060128309682 0)
(1.0039632826778 -0.0042884116036116 0)
(1.0044209426788 -0.0045125349286277 0)
(1.004903179766 -0.0047352283431457 0)
(1.0054077126365 -0.0049516354924408 0)
(1.0059371958112 -0.0051683197885152 0)
(1.0064868972395 -0.0053744374492712 0)
(1.0070629175401 -0.0055855013569867 0)
(1.0076552568953 -0.0057770725371085 0)
(1.0082776186019 -0.0059853243750508 0)
(1.0089086646339 -0.0061546750500382 0)
(1.0095787665702 -0.0063685284029091 0)
(1.0102422846423 -0.006499791681776 0)
(1.0109662935046 -0.0067396159675535 0)
(1.0000006285969 -0.00017658267147692 0)
(1.0000283575231 -0.00052723840342692 0)
(1.0000818312728 -0.00087873177563315 0)
(1.0001620074241 -0.001228721517911 0)
(1.000269141097 -0.0015763705531827 0)
(1.0004031256669 -0.0019221710721018 0)
(1.0005637297314 -0.0022664999325803 0)
(1.0007507888716 -0.0026092760504052 0)
(1.000964140941 -0.002950084952813 0)
(1.001203730881 -0.0032886519006368 0)
(1.0014694002303 -0.0036246695041495 0)
(1.001761148192 -0.0039581812894103 0)
(1.0020787190129 -0.0042888859862691 0)
(1.0024222227128 -0.0046170684696116 0)
(1.0027912285206 -0.0049421092487111 0)
(1.0031861220369 -0.0052646984844711 0)
(1.0036060779611 -0.0055834207734727 0)
(1.0040520560617 -0.0058999037336861 0)
(1.0045223249116 -0.0062109883085624 0)
(1.0050190961777 -0.006520627642927 0)
(1.0055386553561 -0.0068218452773214 0)
(1.0060860097083 -0.0071241203708459 0)
(1.0066531363186 -0.0074118710841834 0)
(1.0072512590792 -0.0077074435422597 0)
(1.0078629663021 -0.0079757065039911 0)
(1.0085132333131 -0.0082686574882128 0)
(1.0091641934424 -0.0085064220778963 0)
(1.0098711557822 -0.00880874041858 0)
(1.0105519651697 -0.0089931468237929 0)
(1.0113292902173 -0.0093338413488637 0)
(1.000000660601 -0.00022261690533801 0)
(1.0000289182856 -0.0006643913330967 0)
(1.0000834118776 -0.0011073506780319 0)
(1.0001651047846 -0.001548416750897 0)
(1.0002742212927 -0.001986541984423 0)
(1.0004106530729 -0.0024224623224923 0)
(1.0005741880765 -0.0028567463966889 0)
(1.0007647186231 -0.0032893436065305 0)
(1.0009821210627 -0.0037197562004648 0)
(1.0012264213868 -0.0041476717402959 0)
(1.0014974882055 -0.0045727273567196 0)
(1.0017954407047 -0.0049950298125396 0)
(1.0021200219277 -0.0054142271842361 0)
(1.002471545174 -0.0058307617669641 0)
(1.0028495054286 -0.0062438627185918 0)
(1.0032546560355 -0.0066545098241931 0)
(1.0036859029143 -0.007060847448241 0)
(1.0041449016793 -0.0074650889081068 0)
(1.0046291855735 -0.0078630302546414 0)
(1.0051423670156 -0.0082599918483976 0)
(1.0056789492563 -0.0086466750982014 0)
(1.0062469021255 -0.0090357957925553 0)
(1.006834100496 -0.0094065777044725 0)
(1.0074581965934 -0.0097889040252549 0)
(1.0080925321916 -0.010135911775547 0)
(1.0087761867257 -0.010516964292387 0)
(1.0094506784755 -0.010825558625454 0)
(1.0102024488357 -0.011221192137559 0)
(1.0109038210416 -0.011460854298613 0)
(1.0117467385951 -0.011909418912932 0)
(1.0000006951381 -0.0002668363005529 0)
(1.0000293768701 -0.0007959397438929 0)
(1.0000846898773 -0.0013266372690879 0)
(1.0001676001341 -0.0018550564258615 0)
(1.0002782981879 -0.0023799537256651 0)
(1.0004166804271 -0.0029023789559175 0)
(1.0005825637613 -0.0034231504681691 0)
(1.0007759122138 -0.0039422839312762 0)
(1.0009966517706 -0.0044592202192523 0)
(1.0012449094966 -0.0049736350942416 0)
(1.0015205926309 -0.0054851311341781 0)
(1.0018239700344 -0.0059939125928987 0)
(1.002154792355 -0.0064996004892059 0)
(1.0025136227448 -0.0070028457856251 0)
(1.0028998802533 -0.0075027428966087 0)
(1.0033147639815 -0.0080006243663365 0)
(1.0037568783569 -0.0084941701793666 0)
(1.004228712355 -0.0089862634890624 0)
(1.0047269536735 -0.0094715593675513 0)
(1.0052568760705 -0.0099569100924867 0)
(1.0058109149361 -0.010430470424885 0)
(1.0064005302384 -0.010908555704386 0)
(1.0070088214512 -0.01136468651105 0)
(1.0076609773209 -0.011837074261038 0)
(1.0083195668819 -0.012265964237598 0)
(1.0090401533272 -0.012739811141127 0)
(1.0097402395343 -0.013122877145928 0)
(1.0105425708308 -0.013618229615872 0)
(1.011266494085 -0.013916541526297 0)
(1.0121846189709 -0.014481826600538 0)
(1.0000007293375 -0.00030909296206136 0)
(1.0000296385742 -0.00092142644587529 0)
(1.0000853923115 -0.0015358376422805 0)
(1.0001689573565 -0.0021475974512723 0)
(1.0002804895848 -0.0027552807105066 0)
(1.0004198961324 -0.0033603257943259 0)
(1.0005870324268 -0.0039638630664331 0)
(1.0007819488667 -0.0045660134250704 0)
(1.0010046328975 -0.0051661809378941 0)
(1.0012553319388 -0.0057640587591907 0)
(1.0015340045754 -0.0063592393447679 0)
(1.0018410977932 -0.0069520633577289 0)
(1.0021763821283 -0.0075421532314694 0)
(1.0025407148079 -0.0081304264688114 0)
(1.0029334448295 -0.008715865039299 0)
(1.0033562886107 -0.0093002246627607 0)
(1.0038075320409 -0.0098807009225636 0)
(1.0042906183319 -0.010460937964463 0)
(1.0048013127293 -0.011034355630014 0)
(1.0053467704224 -0.011609511254151 0)
(1.005917145796 -0.012171787985922 0)
(1.0065278200216 -0.012741475495279 0)
(1.00715660292 -0.013285877631099 0)
(1.007837108216 -0.013852341272476 0)
(1.008519954021 -0.014367046645638 0)
(1.0092790653453 -0.014939285339414 0)
(1.0100053069236 -0.01540145095188 0)
(1.0108617709144 -0.016004018335538 0)
(1.0116090978885 -0.016365529625573 0)
(1.0126094377764 -0.017057633712608 0)
(1.0000007615781 -0.0003491618784932 0)
(1.0000296172687 -0.0010401699301493 0)
(1.000085267568 -0.0017338155197036 0)
(1.0001686819199 -0.0024244471688133 0)
(1.0002799811305 -0.0031104745781376 0)
(1.000419088175 -0.0037938048221212 0)
(1.0005859055535 -0.0044759472748604 0)
(1.0007805836377 -0.0051571704996998 0)
(1.0010031832961 -0.0058368696029859 0)
(1.0012540904048 -0.0065147876290557 0)
(1.0015333284475 -0.0071905351715615 0)
(1.0018415486715 -0.0078646321699774 0)
(1.0021785565598 -0.0085367360886449 0)
(1.0025455434326 -0.0092080936942537 0)
(1.0029418014338 -0.0098776035858624 0)
(1.0033696269585 -0.010547519487753 0)
(1.0038269871234 -0.011214540708545 0)
(1.0043183798342 -0.011883165383438 0)
(1.0048386080477 -0.012545495392987 0)
(1.0053968810561 -0.013211962695414 0)
(1.0059809399624 -0.013864974256726 0)
(1.0066104101415 -0.01452915230198 0)
(1.0072574745152 -0.015165111142193 0)
(1.0079648112095 -0.015830091793701 0)
(1.0086703009086 -0.016435122965626 0)
(1.0094675512336 -0.017111955593794 0)
(1.0102190189184 -0.017658675683078 0)
(1.0111309465872 -0.018376711297921 0)
(1.0119014103122 -0.018807103451655 0)
(1.0129882379724 -0.019636962838352 0)
(1.0000007893953 -0.00038676646533325 0)
(1.0000292398224 -0.0011513402524197 0)
(1.0000841103975 -0.0019191858804979 0)
(1.0001663669358 -0.0026836632762803 0)
(1.000276091953 -0.0034430361058365 0)
(1.0004132279152 -0.0041997629798518 0)
(1.0005777329132 -0.0049558013886765 0)
(1.000769869945 -0.0057116117103265 0)
(1.0009897855022 -0.0064666104323725 0)
(1.0012380204257 -0.0072206257260473 0)
(1.0015146771677 -0.0079733186234717 0)
(1.0018206338689 -0.0087254342373851 0)
(1.0021557482748 -0.0094767040457551 0)
(1.0025215795679 -0.010228769713249 0)
(1.002917383069 -0.010980483515157 0)
(1.0033460857776 -0.011734673253854 0)
(1.0038053531432 -0.012487542558485 0)
(1.0043008132215 -0.01324453268399 0)
(1.0048263070131 -0.013996366887647 0)
(1.0053932156284 -0.014755504799373 0)
(1.0059868240831 -0.01550121582154 0)
(1.0066312009468 -0.016262766077908 0)
(1.0072927609833 -0.016993697563731 0)
(1.0080236127029 -0.01776178665353 0)
(1.0087485356055 -0.018462019320418 0)
(1.0095815316006 -0.019249950618618 0)
(1.0103558042095 -0.019887351160122 0)
(1.0113222112676 -0.020729514493313 0)
(1.0121144090304 -0.02123556636961 0)
(1.0132891392793 -0.022214486887051 0)
(1.0000008115736 -0.00042160510023341 0)
(1.0000284469632 -0.0012540372263618 0)
(1.000081750403 -0.0020904480681127 0)
(1.0001616733344 -0.0029231452960855 0)
(1.0002682543456 -0.0037502665368954 0)
(1.0004014587686 -0.0045749035887753 0)
(1.0005613083493 -0.0053995303162299 0)
(1.0007481889302 -0.0062248428203307 0)
(1.0009623425147 -0.0070503105843621 0)
(1.0012044771858 -0.0078758831618232 0)
(1.0014747881999 -0.0087013074230351 0)
(1.0017743991465 -0.0095276013737675 0)
(1.0021032390562 -0.010354615272904 0)
(1.0024632605476 -0.011184452323141 0)
(1.0028537082065 -0.01201596480504 0)
(1.0032781751243 -0.012852628692804 0)
(1.0037340592835 -0.013690169382784 0)
(1.0042281646633 -0.014535050556934 0)
(1.0047534124523 -0.015376588848784 0)
(1.0053234111789 -0.016229394833314 0)
(1.0059210414326 -0.017069505148584 0)
(1.006574879846 -0.017931063641876 0)
(1.0072456388753 -0.018760296713588 0)
(1.0079949256314 -0.01963597058837 0)
(1.008734508149 -0.02043643928705 0)
(1.0095988470958 -0.021341976473044 0)
(1.010392017549 -0.022076691838965 0)
(1.0114095574046 -0.023051688853929 0)
(1.012220934722 -0.02364121714683 0)
(1.0134820355357 -0.024780394408452 0)
(1.0000008261858 -0.00045338127015143 0)
(1.00002719388 -0.0013473814905861 0)
(1.0000780586577 -0.0022461357108145 0)
(1.0001543435716 -0.0031408392797008 0)
(1.0002560375508 -0.0040295237659434 0)
(1.0003831305187 -0.004915991920754 0)
(1.0005357146117 -0.0058032993714412 0)
(1.0007143057696 -0.006692420393947 0)
(1.0009192494102 -0.0075829097220089 0)
(1.0011514282794 -0.0084748741979613 0)
(1.0014111412314 -0.0093681839625233 0)
(1.0016997681559 -0.010264177128397 0)
(1.0020173291456 -0.011162872588785 0)
(1.0023661865052 -0.012066900607419 0)
(1.0027456055903 -0.012975170279615 0)
(1.0031598633457 -0.013891874423764 0)
(1.0036061408518 -0.014812298560085 0)
(1.0040924302234 -0.0157439920162 0)
(1.0046108168099 -0.016674879470427 0)
(1.0051771244975 -0.017621802488741 0)
(1.0057719781577 -0.018557557984748 0)
(1.0064283834309 -0.019521293651097 0)
(1.0071016306445 -0.020451864208213 0)
(1.0078625875018 -0.02143922652057 0)
(1.0086105590611 -0.022344918618135 0)
(1.009499866273 -0.023374269938477 0)
(1.0103065700621 -0.024213267413397 0)
(1.0113695322574 -0.025329485027051 0)
(1.0121963629481 -0.026011258715205 0)
(1.0135393220055 -0.027321298589762 0)
(1.0000008325277 -0.00048182698055256 0)
(1.0000254516392 -0.0014305842972169 0)
(1.0000729521715 -0.0023849317499391 0)
(1.0001442131522 -0.0033348976981809 0)
(1.0002391663986 -0.0042784269316021 0)
(1.00035782681 -0.005220104445189 0)
(1.0005003614115 -0.0061636279919885 0)
(1.0006674193284 -0.007110289389988 0)
(1.000859454116 -0.0080597606537018 0)
(1.0010775249815 -0.0090123405206885 0)
(1.0013220427377 -0.0099680613572478 0)
(1.0015946463844 -0.01092862609008 0)
(1.0018954644029 -0.011894276067343 0)
(1.002227272364 -0.01286822966319 0)
(1.0025893921769 -0.01384952051029 0)
(1.0029867829991 -0.01484311814093 0)
(1.0034164745231 -0.015843930970726 0)
(1.0038876231074 -0.016860634989304 0)
(1.0043916022397 -0.017879829222023 0)
(1.0049463684645 -0.018920610201988 0)
(1.0055305339437 -0.019952636458383 0)
(1.0061813096656 -0.02102004973043 0)
(1.0068490532736 -0.022054508000632 0)
(1.0076133460866 -0.023157044126178 0)
(1.008362034783 -0.024172695806764 0)
(1.0092680487818 -0.025331474772281 0)
(1.0100815094551 -0.026281869168966 0)
(1.0111818675255 -0.027547012514793 0)
(1.0120192345323 -0.028330640585151 0)
(1.0134365836936 -0.029821088147799 0)
(1.0000008291197 -0.00050672067133735 0)
(1.000023209349 -0.0015029994813725 0)
(1.0000663999803 -0.0025057558496179 0)
(1.0001312180169 -0.0035038024559366 0)
(1.0002175314522 -0.0044950151102949 0)
(1.0003253783238 -0.0054848237289174 0)
(1.0004550023911 -0.0064776215374153 0)
(1.0006071844317 -0.0074750526489902 0)
(1.0007824869698 -0.0084769369834428 0)
(1.0009821410021 -0.009483796841169 0)
(1.0012066740585 -0.010495866286724 0)
(1.0014579782165 -0.011515253825582 0)
(1.0017363056512 -0.012542480607728 0)
(1.0020448346443 -0.013581406779497 0)
(1.0023829798997 -0.01463126841286 0)
(1.0027563599184 -0.015697858690312 0)
(1.0031619314152 -0.016775798855983 0)
(1.0036099539753 -0.017874904727553 0)
(1.0040912493733 -0.01898057502157 0)
(1.0046257534708 -0.020114117672171 0)
(1.0051903965363 -0.021242279335197 0)
(1.0058262287135 -0.022414025424874 0)
(1.0064793615269 -0.02355426058775 0)
(1.0072372511896 -0.024774610433685 0)
(1.0079777114313 -0.025904509197171 0)
(1.0088904144447 -0.02719745186916 0)
(1.0097025154056 -0.028266311689348 0)
(1.0108300335081 -0.029687053802452 0)
(1.0116718110788 -0.030582844613832 0)
(1.0131532295551 -0.032261732286552 0)
(1.0000008159916 -0.00052789990031355 0)
(1.0000204728056 -0.0015641613628878 0)
(1.0000584192107 -0.0026078273031687 0)
(1.0001153914866 -0.0036464533730666 0)
(1.0001911852477 -0.0046778619040171 0)
(1.0002858583117 -0.0057083795735901 0)
(1.0003997302608 -0.0067431398439478 0)
(1.0005337068978 -0.0077841679047265 0)
(1.0006884563246 -0.0088314597462064 0)
(1.0008653697618 -0.0098857886061554 0)
(1.0010650918258 -0.010947628997744 0)
(1.0012897521773 -0.012019529883231 0)
(1.0015397385146 -0.013102352013839 0)
(1.0018186075298 -0.01420064160811 0)
(1.0021259024796 -0.015313924705257 0)
(1.0024678549747 -0.016448848311826 0)
(1.0028414355078 -0.017599864032056 0)
(1.0032579096176 -0.018777908021247 0)
(1.0037077380189 -0.019967368209142 0)
(1.0042126153059 -0.021191643592689 0)
(1.0047481966226 -0.022414933066681 0)
(1.0053588743926 -0.023690675424365 0)
(1.0059873726596 -0.024937762001328 0)
(1.0067279161558 -0.026277517866404 0)
(1.0074500879605 -0.02752531474859 0)
(1.0083578899965 -0.028956017719382 0)
(1.0091592683806 -0.030150165558267 0)
(1.0103016657012 -0.031731817422133 0)
(1.0111405160177 -0.03275061016214 0)
(1.012673002817 -0.034624037564734 0)
(1.0000007922677 -0.0005452692504795 0)
(1.00001726467 -0.0016138069263164 0)
(1.0000490751365 -0.0026907027682859 0)
(1.0000968589595 -0.0037622213952539 0)
(1.0001603326103 -0.0048261443058286 0)
(1.0002395679688 -0.0058897347978544 0)
(1.0003349562359 -0.0069589012839488 0)
(1.0004475167725 -0.0080360716843834 0)
(1.0005780153837 -0.0091214428065472 0)
(1.0007279851674 -0.010216060662472 0)
(1.0008981834099 -0.01132067703872 0)
(1.0010909523121 -0.012438308652222 0)
(1.0013068223905 -0.013570216623137 0)
(1.0015496904265 -0.014721665810191 0)
(1.00181926185 -0.015892568651108 0)
(1.0021223137808 -0.017090436962997 0)
(1.002455920972 -0.018309697333296 0)
(1.0028322217906 -0.019562349562933 0)
(1.0032415294477 -0.020832026346488 0)
(1.0037070159247 -0.022144014488774 0)
(1.0042035291026 -0.023460473613862 0)
(1.004778191315 -0.024838773222063 0)
(1.0053713390541 -0.026192844981945 0)
(1.006082633848 -0.027652383239915 0)
(1.0067755331292 -0.029020921975579 0)
(1.0076654984806 -0.030591610160665 0)
(1.0084456709757 -0.031917420155312 0)
(1.0095888430954 -0.033663630561058 0)
(1.0104162253601 -0.034816598618047 0)
(1.0119843441732 -0.036888354131443 0)
(1.0000007586822 -0.00055880330855686 0)
(1.0000136209676 -0.0016518842565527 0)
(1.0000384719288 -0.0027542901941744 0)
(1.0000758258357 -0.0038509687898475 0)
(1.0001253113225 -0.0049396697784664 0)
(1.0001870078759 -0.0060286198003699 0)
(1.0002613717536 -0.0071245263001683 0)
(1.000349519322 -0.0082302338045934 0)
(1.0004523018265 -0.0093461604250613 0)
(1.0005713694337 -0.010473640394987 0)
(1.0007075828229 -0.011613736438985 0)
(1.0008634627634 -0.012769951610717 0)
(1.0010396844458 -0.013944007112222 0)
(1.0012404330253 -0.015141905743776 0)
(1.0014656053659 -0.016364048917701 0)
(1.0017224366116 -0.017618803842861 0)
(1.0020081972409 -0.018900741799626 0)
(1.002335733439 -0.020222831212097 0)
(1.0026954367421 -0.021568267700826 0)
(1.0031116231468 -0.022963938127269 0)
(1.0035588435839 -0.024370614195912 0)
(1.0040862448667 -0.025848858544938 0)
(1.0046328782788 -0.027309012523071 0)
(1.0053023313054 -0.028887366172439 0)
(1.0059542692513 -0.030378535322492 0)
(1.0068123925984 -0.032089872610523 0)
(1.0075599097887 -0.033553072881708 0)
(1.0086881994461 -0.035465567506195 0)
(1.0094944072012 -0.036763991601231 0)
(1.0110805798972 -0.039035223057381 0)
(1.0000007151157 -0.00056854566229109 0)
(1.0000095902769 -0.0016785500625703 0)
(1.0000267485877 -0.0027988437481469 0)
(1.0000525637959 -0.0039130402160606 0)
(1.0000865696085 -0.0050188653459724 0)
(1.0001288449552 -0.0061255222091872 0)
(1.0001799016291 -0.0072405290939845 0)
(1.0002409327794 -0.008367152560852 0)
(1.0003128584998 -0.0095060472681277 0)
(1.0003974156555 -0.010658844434277 0)
(1.0004955542346 -0.011826947064315 0)
(1.0006099320777 -0.013014354478423 0)
(1.000741365109 -0.014223304427199 0)
(1.0008942636549 -0.015460543984108 0)
(1.0010687385111 -0.016727067807236 0)
(1.0012723780528 -0.018032069904554 0)
(1.0015027356458 -0.019370454053849 0)
(1.0017731750198 -0.020756028598548 0)
(1.0020743952237 -0.022171922677893 0)
(1.0024314807402 -0.023646258331533 0)
(1.0028192176443 -0.025139196816667 0)
(1.0032880016105 -0.026713575513523 0)
(1.0037767625968 -0.028277807843796 0)
(1.0043913802059 -0.029972586298785 0)
(1.0049902010705 -0.03158719525782 0)
(1.0058017112889 -0.033438150906154 0)
(1.0065043562412 -0.035043641562211 0)
(1.0076008785224 -0.037122025781241 0)
(1.0083751099107 -0.038577037551004 0)
(1.0099599533466 -0.041045981302512 0)
(1.0000006636638 -0.00057460311748787 0)
(1.0000052285082 -0.0016941460560401 0)
(1.0000140715187 -0.0028249259432434 0)
(1.0000273983318 -0.0039492177285584 0)
(1.0000446425624 -0.0050647226151128 0)
(1.0000658749026 -0.0061816213013009 0)
(1.000091651618 -0.0073082444876939 0)
(1.0001232185052 -0.008448278474457 0)
(1.0001615443005 -0.009602623272608 0)
(1.0002084178608 -0.010773208461575 0)
(1.0002648592793 -0.01196179972416 0)
(1.0003336163255 -0.013172894340148 0)
(1.0004156350581 -0.014409295842709 0)
(1.0005154799744 -0.015678491839701 0)
(1.0006334891947 -0.016982168859615 0)
(1.0007774876332 -0.018330307272784 0)
(1.0009453876789 -0.019718334568245 0)
(1.0011508634292 -0.021160752319518 0)
(1.0013851422972 -0.022641020122113 0)
(1.0016736771628 -0.02418808501915 0)
(1.0019920189016 -0.025762354103121 0)
(1.0023909946829 -0.027427893801309 0)
(1.0028105920765 -0.029093066430637 0)
(1.0033572743035 -0.030900439441528 0)
(1.0038906031711 -0.0326381083186 0)
(1.0046402793286 -0.034625887138656 0)
(1.0052852895972 -0.036377572182867 0)
(1.0063323029506 -0.038619234780999 0)
(1.0070628121233 -0.040241568642939 0)
(1.0086255184249 -0.042903370711451 0)
(1.000000601355 -0.00057714254661053 0)
(1.000000606045 -0.0016991865462108 0)
(1.000000620707 -0.0028333967923657 0)
(1.0000006774269 -0.003960699550573 0)
(1.0000001068606 -0.00507876928659 0)
(0.99999896261133 -0.0061987497577425 0)
(0.99999783077432 -0.0073297759173775 0)
(0.99999798438385 -0.0084759457063791 0)
(1.0000004173953 -0.0096384078988725 0)
(1.0000069328959 -0.010819386321724 0)
(1.0000185963891 -0.012021024165231 0)
(1.0000381955352 -0.013248311839555 0)
(1.0000667874473 -0.01450465558709 0)
(1.0001090167738 -0.015798274779108 0)
(1.0001654479685 -0.017131628857458 0)
(1.000244023933 -0.018515447329088 0)
(1.0003430693946 -0.019945848421557 0)
(1.0004763624244 -0.021437898430806 0)
(1.0006358469944 -0.022975750433552 0)
(1.0008469512043 -0.02458880137907 0)
(1.0010864810079 -0.026238523061043 0)
(1.0014048875717 -0.027989195752276 0)
(1.0017443497519 -0.029751008323211 0)
(1.0022102020185 -0.031665804724303 0)
(1.0026657069901 -0.033524837551415 0)
(1.0033381781776 -0.035644913516236 0)
(1.0039124617528 -0.037545466422264 0)
(1.0048917172304 -0.039945591203153 0)
(1.0055660530698 -0.041745404446965 0)
(1.0070848876445 -0.044592113454753 0)
(1.0000005352199 -0.00057636802861737 0)
(0.99999577298802 -0.0016943262870604 0)
(0.99998657353849 -0.0028253388298747 0)
(0.99997276761715 -0.0039489984902198 0)
(0.99995357714862 -0.0050629444526341 0)
(0.99992902857142 -0.0061792559134936 0)
(0.99989972351648 -0.0073078538727651 0)
(0.99986693613091 -0.0084532303448456 0)
(0.99983166200259 -0.0096167797270143 0)
(0.99979567903206 -0.010801011494334 0)
(0.9997600698365 -0.012008455125237 0)
(0.9997276114687 -0.013244581135725 0)
(0.99969944391867 -0.014513419120703 0)
(0.99968021962087 -0.015823908887445 0)
(0.99967070811664 -0.017179336463488 0)
(0.99967886297524 -0.01859116438685 0)
(0.99970343401108 -0.020056311602345 0)
(0.99975812947264 -0.021590355505023 0)
(0.99983572046038 -0.023178373985016 0)
(0.99996128697994 -0.024850022901616 0)
(1.0001132477629 -0.026568378278952 0)
(1.0003410022767 -0.028397307731291 0)
(1.0005898655359 -0.030250187085726 0)
(1.0009625207601 -0.032266208839746 0)
(1.0013281784602 -0.034243329925094 0)
(1.0019082925593 -0.03648982583867 0)
(1.0023986380067 -0.038540116976878 0)
(1.0032915588288 -0.041091839183141 0)
(1.0038967567805 -0.043078206346044 0)
(1.0053496745305 -0.046098921148885 0)
(1.000000462117 -0.00057251999247905 0)
(0.99999078927214 -0.0016802880754009 0)
(0.99997209075396 -0.0028019738905101 0)
(0.99994399710982 -0.0039158495278746 0)
(0.99990562595795 -0.0050195025180853 0)
(0.9998569569637 -0.0061258994665782 0)
(0.99979858752638 -0.0072457247443962 0)
(0.99973176665949 -0.0083838343734461 0)
(0.99965746587936 -0.0095418554900529 0)
(0.99957739141684 -0.010722571264917 0)
(0.99949262243393 -0.011928910839462 0)
(0.99940587475865 -0.013166799382961 0)
(0.99931834276566 -0.014440901025523 0)
(0.9992346055503 -0.015760847382174 0)
(0.99915560385484 -0.017130782411259 0)
(0.99908919872379 -0.018562893965845 0)
(0.99903453988224 -0.020054949710571 0)
(0.99900513903242 -0.021623081268586 0)
(0.99899459854501 -0.023253320355581 0)
(0.9990274704732 -0.024975727059263 0)
(0.99908388107583 -0.026754934827304 0)
(0.9992118336938 -0.028654699927493 0)
(0.99936020904777 -0.030591490739462 0)
(0.99962817098366 -0.032702133526353 0)
(0.99989236590794 -0.034791721706743 0)
(1.0003657990669 -0.037158742994201 0)
(1.0007592568212 -0.039356340504439 0)
(1.0015472719637 -0.042052101603607 0)
(1.0020698254521 -0.044230181204163 0)
(1.0034344826181 -0.04741109864426 0)
(1.0000003822269 -0.00056586424070465 0)
(0.999985696048 -0.0016578675964569 0)
(0.99995730010261 -0.0027646043827544 0)
(0.99991464367545 -0.0038630575108351 0)
(0.99985675510454 -0.0049507670415938 0)
(0.99978353857969 -0.0060415274729414 0)
(0.99969556824067 -0.0071467628921951 0)
(0.99959404904535 -0.0082716501256696 0)
(0.9994798976341 -0.0094180311813307 0)
(0.99935467321106 -0.010588942491209 0)
(0.99921945295796 -0.011787725782221 0)
(0.9990768312117 -0.013020707684539 0)
(0.99892806396304 -0.01429321469863 0)
(0.99877753294055 -0.015615498586459 0)
(0.99862636220613 -0.016992621279152 0)
(0.99848214148504 -0.018437420782697 0)
(0.99834446052417 -0.019948590863084 0)
(0.99822642062787 -0.021542812024674 0)
(0.99812251328199 -0.023207030793959 0)
(0.9980565567705 -0.024972031365197 0)
(0.99801038498689 -0.026803421815325 0)
(0.99803049549324 -0.028766216880828 0)
(0.99806916841562 -0.030777738857731 0)
(0.99822211053148 -0.032976580864537 0)
(0.99837339910841 -0.03516892803905 0)
(0.99872735083991 -0.037653043066199 0)
(0.99901157646479 -0.039988482525994 0)
(0.99967806877418 -0.04282663777964 0)
(1.0001051394513 -0.045188940452272 0)
(1.001356864226 -0.048516819986504 0)
(1.0000002939518 -0.00055674310187552 0)
(0.99998059392649 -0.0016280486914523 0)
(0.99994243595155 -0.0027147630917768 0)
(0.99988509770513 -0.0037926268431729 0)
(0.99980754862741 -0.0048591704382099 0)
(0.99970960039924 -0.0059289757772674 0)
(0.9995917870009 -0.0070141947165149 0)
(0.99945526033907 -0.0081201745549542 0)
(0.99930084825661 -0.0092490701550179 0)
(0.9991298765499 -0.010404192699761 0)
(0.99894345752668 -0.011589278153129 0)
(0.99874396091411 -0.012810944483223 0)
(0.9985327646267 -0.014075233542502 0)
(0.99831383955586 -0.015392863285018 0)
(0.99808865386697 -0.016769977138438 0)
(0.99786413778654 -0.018219822457979 0)
(0.99764068420144 -0.019742369458677 0)
(0.99743031791327 -0.021354477234148 0)
(0.99722912168149 -0.023044461718585 0)
(0.99705908692294 -0.024843491781898 0)
(0.99690489923645 -0.026718214530499 0)
(0.99680999544157 -0.028735726093132 0)
(0.9967314763036 -0.030811659004837 0)
(0.99675989241171 -0.033092611652674 0)
(0.99678784867293 -0.035373458902028 0)
(0.99701022782214 -0.037976449348573 0)
(0.99717316472902 -0.040427314708185 0)
(0.99770544497577 -0.043429506500143 0)
(0.99803150528845 -0.045939129613633 0)
(0.99914220481767 -0.049442908720257 0)
(1.0000002001419 -0.00054569983441081 0)
(0.99997568860594 -0.0015924020863909 0)
(0.99992795342431 -0.0026548040298473 0)
(0.99985605491116 -0.0037075393814909 0)
(0.99975891473516 -0.0047481302002774 0)
(0.99963625274911 -0.0057918968674621 0)
(0.99948868749361 -0.0068520230865158 0)
(0.99931721371137 -0.0079332116856269 0)
(0.99912235800665 -0.0090382448490327 0)
(0.998905300384 -0.010170943058219 0)
(0.99866732047264 -0.011335444064598 0)
(0.99841042856666 -0.012538579125933 0)
(0.99813618653899 -0.013787194017489 0)
(0.99784788941599 -0.015092320742993 0)
(0.99754759638651 -0.016461404533436 0)
(0.99724097970276 -0.017907724084135 0)
(0.99692995573093 -0.01943326407866 0)
(0.9966242066009 -0.021054249208122 0)
(0.99632323126438 -0.022761973876081 0)
(0.99604430744828 -0.024586153407754 0)
(0.99577911449783 -0.026497364442698 0)
(0.99556177302723 -0.028561695420572 0)
(0.99536282497943 -0.03069643914645 0)
(0.99525536173001 -0.033055299441035 0)
(0.99515612009021 -0.035416248084768 0)
(0.99522939627568 -0.038148403408 0)
(0.99526436821718 -0.040685060892297 0)
(0.99563825291501 -0.043920264669716 0)
(0.9958784554035 -0.046478254288162 0)
(0.99681730310056 -0.050408942074861 0)
(1.0000000896471 -0.0005338276988363 0)
(0.99997088687907 -0.0015543975899091 0)
(0.99991391525309 -0.002591277637676 0)
(0.99982777064986 -0.0036176370797966 0)
(0.99971137895254 -0.0046306760516592 0)
(0.9995640268496 -0.0056461073413592 0)
(0.99938720906369 -0.0066791691886043 0)
(0.99918175723503 -0.0077334768833969 0)
(0.99894679702803 -0.0088119726607906 0)
(0.99868371256587 -0.0099187481048756 0)
(0.99839421722859 -0.01105865962047 0)
(0.99807990947217 -0.012239003377684 0)
(0.99774246882427 -0.013467668599245 0)
(0.99738449150897 -0.014756309754202 0)
(0.99700867348764 -0.016114058963588 0)