/*--------------------------------*- C++ -*----------------------------------*\
| =========                 |                                                 |
| \\      /  F ield         | OpenFOAM: The Open Source CFD Toolbox           |
|  \\    /   O peration     | Version:  2112                                  |
|   \\  /    A nd           | Website:  www.openfoam.com                      |
|    \\/     M anipulation  |                                                 |
\*---------------------------------------------------------------------------*/
FoamFile
{
    version     2.0;
    format      ascii;
    arch        "LSB;label=32;scalar=64";
    class       volScalarField;
    location    "18.9";
    object      p;
}
// * * * * * * * * * * * * * * * * * * * * * * * * * * * * * * * * * * * * * //

dimensions      [0 2 -2 0 0 0 0];

internalField   nonuniform List<scalar> 
22000
(
0.020630449723891
0.020608199835666
0.020562484670283
0.020492023163101
0.02039628813735
0.020275336373693
0.020129457606517
0.019958954082802
0.01976406987524
0.01954500351034
0.019301944814452
0.019035109154511
0.018744748554896
0.01843115537257
0.018094649912983
0.017735586342798
0.01735433774479
0.01695132004867
0.016526960466768
0.016081748438792
0.015616161250221
0.015130777177079
0.014626108004261
0.014102851085197
0.013561513512416
0.013002975351043
0.012427648317387
0.011836732861686
0.011230315236875
0.010610183830411
0.021045488020727
0.021022007517301
0.02097474867384
0.020902526115306
0.020804770714581
0.020681467773962
0.020532853584317
0.020359202397635
0.020160745211214
0.019937671534718
0.019690159868861
0.019418412493709
0.01912266620407
0.01880319966197
0.018460317918826
0.018094363821199
0.017705694973901
0.017294719604563
0.016861847528544
0.016407567398632
0.015932334391667
0.015436739834355
0.014921260886437
0.01438663237551
0.013833295514467
0.013262210547598
0.012673642135569
0.012068949182497
0.011447829682564
0.010812340921819
0.021807140547134
0.021782769693032
0.021733802728113
0.021659120613645
0.021558196480845
0.021431016413666
0.021277792507434
0.021098768836778
0.020894149050923
0.020664099641322
0.020408776444302
0.020128359054202
0.019823058349879
0.019493128336849
0.019138845511648
0.018760529877043
0.018358509092494
0.01793317476398
0.017484903903113
0.017014181564771
0.016521421853454
0.016007238012302
0.015472044034918
0.014916647008293
0.014341372442078
0.0137473530671
0.013134602666162
0.012504859274177
0.011857135439027
0.011194175548277
0.022866702315722
0.022841364664194
0.022790458980008
0.02271283949597
0.022607974905337
0.022475851783766
0.022316671133456
0.022130652021858
0.02191796466832
0.02167874046233
0.02141309845588
0.021121181883716
0.020803161377742
0.020459252380038
0.020089686648099
0.019694746613283
0.019274711681273
0.018829943484142
0.018360765903151
0.017867651699188
0.017350949583332
0.01681129654548
0.016249010148632
0.015664991579168
0.015059393477229
0.014433579306667
0.013787187796814
0.013122459630092
0.012437383992859
0.011735616551582
0.024182148801833
0.024155737264317
0.024102668857698
0.024021754016344
0.023912439159345
0.023774699197195
0.023608716187715
0.023414676357252
0.023192705698976
0.02294288662077
0.022665284798101
0.022359989389588
0.022027111459085
0.021666808526035
0.02127924599561
0.020864648248558
0.02042322235498
0.01995528003025
0.019461065232303
0.018941022004787
0.018395402403734
0.017824859136687
0.017229572162648
0.016610546587105
0.015967698608567
0.015302668028557
0.01461460035404
0.013906365867001
0.013174645995495
0.012424283130276
0.025716386366397
0.025688865271324
0.025633559642739
0.025549233405888
0.025435304195183
0.025291724913876
0.025118645579078
0.024916204817573
0.024684468261255
0.024423451851481
0.024133148239251
0.023813571170464
0.023464748450996
0.023086755178335
0.022679663346448
0.022243612749329
0.021778707902135
0.021285183576306
0.020763170200019
0.020213058382963
0.01963496511422
0.019029541668981
0.018396783262208
0.017737798590804
0.01705220191728
0.016341945574191
0.015605568871967
0.014846684491784
0.014060390727502
0.013252946214973
0.027435917950101
0.027407340679958
0.02734990194182
0.027262318819511
0.027143974699111
0.026994789934316
0.026814867945979
0.02660428267873
0.026363020671705
0.02609101128567
0.02578815179317
0.025454356033027
0.025089541185283
0.024693670979577
0.024266692056097
0.023808627352948
0.023319442644985
0.022799261615438
0.02224806057906
0.021666143347172
0.021053445897058
0.020410590306513
0.019737332464865
0.019034871924093
0.018302448924095
0.017542346567071
0.016752380689501
0.015936990972445
0.015089414323329
0.014217501802169
0.029309792043485
0.029280299902421
0.029221008091045
0.029130588245373
0.029008383796773
0.028854271001721
0.028668291435931
0.028450436790927
0.028200594968617
0.02791858714122
0.027604190778926
0.02725719267803
0.02687736898792
0.026464539380701
0.026018488994304
0.025539086413501
0.025026116911412
0.024479551922384
0.023899166112885
0.023285133980456
0.022637156295899
0.021955786642483
0.021240478045644
0.020492492412044
0.019710615779985
0.01889746023077
0.018049995595701
0.017173544503044
0.016259207004661
0.015316549729161
0.031308946060015
0.031278762609121
0.031218064201044
0.031125479526383
0.03100030524811
0.03084236123593
0.030651612412396
0.030427951372933
0.030171147998291
0.02988089306575
0.029556818777851
0.029198556268222
0.028805708433048
0.028377915622026
0.027914762255245
0.027415920862031
0.026880949873577
0.026309621094728
0.025701453739944
0.025056441669486
0.024373988407708
0.023654527407847
0.022897136427192
0.022103095450091
0.02127064752455
0.020402709432428
0.019495278605821
0.018554584426204
0.017569316366109
0.016550814609865
0.033405872386933
0.033375295360606
0.033313787460559
0.033219936825017
0.033092986210103
0.032932687696711
0.032738916438187
0.032511450434774
0.032249922886372
0.031953872369059
0.031622760785848
0.031256035198108
0.030853092935851
0.030413358855366
0.029936176059916
0.029420976748195
0.028867043239371
0.028273895548851
0.02764073886533
0.026967327311241
0.026252698306521
0.025497102085559
0.024699160402844
0.023860109669373
0.022977553362369
0.022054664979512
0.021086337786914
0.020079694341553
0.019020741435894
0.017922571090091
0.035574517790041
0.035543905228035
0.03548231070973
0.035388283345569
0.035261006613763
0.03510015653518
0.034905507253333
0.034676707672787
0.034413237122647
0.034114462179155
0.033779651629075
0.033408041978252
0.032998794397956
0.032551083169817
0.032063970281425
0.031536602946279
0.030967937391855
0.030357186989174
0.029703181603944
0.029005370523308
0.028262351302827
0.027474117069206
0.026638746007452
0.025757352976815
0.024826797425913
0.023850435163674
0.022821919532088
0.021749210847799
0.020615362485557
0.019435105363939
0.03779034265559
0.037760100357365
0.037699232727041
0.037606259658313
0.037480306305102
0.037320966686439
0.037127903589167
0.036900623980325
0.036638438785772
0.036340526227136
0.036005943081361
0.035633692571366
0.035222672744259
0.03477177535965
0.034279744604698
0.033745400181867
0.033167324215734
0.032544368477069
0.031874926231236
0.031158073237723
0.030391891002053
0.029576033185622
0.028707942059886
0.027788516488246
0.026813762111346
0.0257871166116
0.024700853622451
0.02356367038768
0.022355400769813
0.021092197225691
0.040030432544864
0.040000997500973
0.039941733550513
0.039851146539346
0.039728307469858
0.039572724234349
0.039383940425451
0.039161312311147
0.038903973316222
0.038610902260347
0.038280929828274
0.037912808092352
0.037505150560778
0.037056539951029
0.036565371498089
0.03603009952165
0.035448888829894
0.034820177543005
0.034141864258713
0.033412581998888
0.032629821026864
0.031792807065356
0.030898252730162
0.029946732868999
0.028933286052885
0.027861304789317
0.026721543227876
0.025523287377765
0.024242892530772
0.022897600739168
0.042273662569429
0.042245488122548
0.04218873859632
0.0421019241212
0.04198406865104
0.041834592624731
0.041652916250489
0.041438240845355
0.041189518413604
0.040905523575587
0.040584854348482
0.04022600116901
0.039827278475266
0.039386940449442
0.038903010048888
0.038373545609282
0.037796259078539
0.03716912880769
0.036489507417642
0.035755518924048
0.034963992097807
0.034113633937365
0.033200336510255
0.032224231016295
0.031179277316593
0.030068671384497
0.028881509739944
0.027627470443852
0.026279186173579
0.024854531760574
0.044500871187839
0.044474411452094
0.044421090330028
0.044339442409706
0.044228454198494
0.044087460773606
0.043915758924411
0.043712395875518
0.043476144365532
0.043205576618279
0.042899058581627
0.042554816873205
0.042170862171978
0.04174510990844
0.041275196771676
0.040758763896287
0.040193045231797
0.039575522134871
0.038902960237326
0.038172914685351
0.037381492148334
0.036526790980408
0.035603800640719
0.03461208157652
0.033544411302158
0.032403615232999
0.03117700323984
0.029874399548934
0.028464486524116
0.026965188181282
0.046695003450353
0.046670698789444
0.046621693359624
0.04654656832492
0.046444284797187
0.046314097458489
0.04615518383326
0.04596644334283
0.045746477955755
0.045493666338779
0.045206150776218
0.044881900330229
0.044518626688439
0.044113907329953
0.043664990964075
0.043169091403086
0.042622951923065
0.042023530997621
0.04136698010208
0.040650235024527
0.039868634597303
0.039019582271901
0.038097098883605
0.037100039839372
0.036019915996247
0.034858990881023
0.033602680066306
0.032260661368226
0.030797482504528
0.029230321976163
0.048841206664132
0.048819470082834
0.048775614707563
0.048708291312677
0.048616449330718
0.048499270886207
0.048355822235143
0.048184866342165
0.047984849096086
0.04775397150451
0.047490168514918
0.047191166662654
0.046854393172793
0.046477098947553
0.046056155382957
0.045588352675926
0.045069945355955
0.044497356184334
0.043866112059656
0.0431724906596
0.042411037859997
0.041578381104071
0.040667532988914
0.039676497974317
0.0385954707141
0.037425922741793
0.036151337121639
0.034780885218244
0.03327493160658
0.031649014783016
0.050926871184572
0.050908077031441
0.050870129803693
0.050811774579408
0.050731964557735
0.050629819010886
0.050504304225322
0.050354062620503
0.050177403876702
0.049972373254925
0.04973672199563
0.049467958037573
0.049163248654427
0.048819540486204
0.048433350195326
0.048001061247857
0.047518457342082
0.046981428307959
0.046384884270161
0.045724419653007
0.044993787094258
0.044188763136907
0.04330135306294
0.04232854835404
0.041259237167168
0.040093805083083
0.038813830129764
0.037427458147256
0.035891284629574
0.034216827973954
0.052941613343832
0.052926088949868
0.052894714523332
0.052846354391539
0.052779982248965
0.052694666720743
0.052589288512809
0.052462389481632
0.052312167691541
0.052136539372828
0.051933100922645
0.051699172532042
0.051431694958018
0.05112734418067
0.050782316816935
0.050392620399375
0.049953599737997
0.049460632545948
0.048908037657046
0.048290721437514
0.047601659650495
0.04683572500402
0.045983935306786
0.045042131930442
0.043997962168065
0.042850373858977
0.041579315355371
0.040190839893383
0.038639180764149
0.03692909858386
0.054877199999537
0.054865224105224
0.054840985691689
0.054803491608128
0.054751753395926
0.054684803426358
0.05460145410624
0.054500169502424
0.054379064433711
0.054235958463194
0.054068328585925
0.053873343655054
0.053647756823178
0.05338801493603
0.053090039770986
0.052749507751482
0.052361369527678
0.051920532362544
0.05142076150088
0.050856307633518
0.050219383818795
0.049503967348994
0.04870005878821
0.04780232205971
0.04679712724995
0.045681893649922
0.044434965321068
0.04305986002815
0.041508079395119
0.039777007743021
0.056727414062672
0.056719220571676
0.056702585812052
0.056676674026559
0.056640551261967
0.056593229711888
0.056533473192989
0.056459692094009
0.056369945787676
0.056261990696721
0.056133227089933
0.055980717731719
0.055801076389936
0.055590568848393
0.055344896584845
0.055059458287525
0.054728867964398
0.054347618641958
0.053908975023984
0.053406596829146
0.052831961068992
0.052178231120043
0.051434313436093
0.050593807274463
0.049641492371425
0.048573596003457
0.047366351698784
0.046021682890719
0.044486722499932
0.042750858022297
0.058487879750703
0.058483648660453
0.058474986591207
0.05846122201434
0.05844149888259
0.058414818755011
0.058379907964121
0.058335150720635
0.058278580186204
0.058207920160971
0.058120535259653
0.058013425581326
0.057883121176864
0.057725761361588
0.057536899059945
0.057311712944873
0.057044563962058
0.056729582528924
0.056359626198036
0.055927808063077
0.055424968086499
0.054843523357362
0.054171329060093
0.053401077573062
0.052515555788362
0.051510243563424
0.050357587163614
0.049060979534855
0.047559336436825
0.045841505897888
0.060155923181901
0.060155685554139
0.06015517881951
0.060153914818345
0.060151144666896
0.060145865600136
0.060136749011247
0.060122171997074
0.060100171088214
0.060068472714508
0.060024449655211
0.059965076816567
0.059886849051051
0.059785818781592
0.059657460375893
0.059496770673945
0.059297968752617
0.059054844092697
0.058760024563014
0.05840602119002
0.057983326532121
0.057483393946763
0.056893558506569
0.056205212206726
0.055399932633526
0.054471769042474
0.053388398153958
0.052154355075402
0.050694398235426
0.049017225820021
0.061730712456276
0.061734166015364
0.061741488694668
0.061752639135986
0.061766936845911
0.061783338711693
0.061800489618121
0.061816718087013
0.061830066618313
0.061838320303331
0.061838896840048
0.061828779770608
0.061804490093209
0.061762043011929
0.061696897588142
0.061603867647899
0.061477105587863
0.061309997989641
0.061095138539128
0.06082422402773
0.060487924790298
0.060076005606626
0.059576676324736
0.058977880399222
0.05826411624228
0.057422315284432
0.056426481133727
0.055262330454079
0.053854581964464
0.052181466070103
0.063213803497383
0.063220676178154
0.063234871811628
0.063257696921741
0.063288514987084
0.063325882956269
0.063368871801049
0.063415654566332
0.063464176701429
0.063512380991098
0.063557793633082
0.063597412411828
0.063627839499708
0.063645159516251
0.063644949107692
0.063621984642642
0.063570484761029
0.063483490816772
0.063353659190319
0.063171751803754
0.062928912703207
0.06261272392718
0.062213468320778
0.061713530144055
0.06110461928949
0.060359214809647
0.059475263802705
0.058398767571245
0.057103299638415
0.055371217313004
0.010014932025366
0.0094474221086345
0.0088697400371131
0.0082830086616894
0.007688213702724
0.0070861777891297
0.0064776199086096
0.0058632151880592
0.0052436502197914
0.0046196531775684
0.0039919901456638
0.0033614470254521
0.0027288161754349
0.0020948910769307
0.0014604650880661
0.00082633141017087
0.00019328250524727
-0.00043789146675789
-0.0010664043822423
-0.0016914758216478
-0.0023123319404066
-0.0029282040585931
-0.0035383237054514
-0.0041419156717106
-0.0047382076314411
-0.0053266118776051
-0.0059066101172832
-0.0064775558824988
-0.0070387543531255
-0.0075895437264404
-0.0081293253674516
-0.0086575535193207
-0.0091737193696087
-0.0096773408981908
-0.010167965264704
-0.010645165200526
-0.011108548449364
-0.011557746807647
-0.011992434861451
-0.012412302527512
-0.012817097109205
-0.013206559257359
-0.013580520129799
-0.013938754748262
-0.014281204528034
-0.014607645025859
-0.014918195078897
-0.015212572110083
-0.015491281329669
-0.015753949239914
0.010205229069776
0.0096291802493038
0.0090416606000124
0.0084448665815172
0.0078401834425903
0.0072283885929722
0.0066099771485928
0.0059853998277735
0.0053552150571091
0.0047201197034493
0.0040808925909282
0.0034383346205188
0.0027932449578318
0.0021464222953829
0.0014986712555468
0.00085080564259656
0.00020364821818686
-0.00044197139923538
-0.0010852201545354
-0.0017252659196076
-0.0023612831904593
-0.0029924616539755
-0.0036180203596021
-0.0042372273111248
-0.0048494009694988
-0.0054536806170852
-0.0060491571245902
-0.0066351064414885
-0.0072109033865474
-0.0077759430234877
-0.0083296195855384
-0.0088713369787659
-0.0094005289256402
-0.0099166617134935
-0.010419243267
-0.010907811762613
-0.011381952980333
-0.011841274182872
-0.012285444340697
-0.012714133571947
-0.013127105082744
-0.013524075546724
-0.013904924239046
-0.014269375559214
-0.014617472336288
-0.014948854772586
-0.015263822129827
-0.015561682271767
-0.015843097264387
-0.016106150933443
0.010562789362443
0.0099639418346175
0.0093506130353325
0.008727482028798
0.0080970232842909
0.0074600963844759
0.0068168555390222
0.0061673919927222
0.005512093041859
0.0048516697082731
0.0041869878073931
0.0035189216673574
0.0028483109551139
0.002175976738058
0.0015027438531508
0.00082945141432717
0.00015695333518291
-0.00051388596857245
-0.0011821976842436
-0.0018471150553451
-0.0025077785396844
-0.003163337761236
-0.0038129490593395
-0.0044557666254288
-0.0050909335372424
-0.0057176457506082
-0.0063351537596959
-0.0069427255110483
-0.0075396593801484
-0.0081252821325223
-0.0086989498355716
-0.0092600464172974
-0.0098079950753125
-0.010342252590293
-0.010862326352891
-0.011367752033047
-0.0118581282437
-0.012333063814181
-0.012792257472826
-0.013235376799503
-0.013662240605091
-0.014072541996327
-0.014466263218056
-0.014843045019473
-0.015203126357363
-0.015545904345728
-0.01587204304921
-0.016180124726862
-0.016471242556672
-0.016740742493752
0.011068285211446
0.010433427245084
0.0097798994714539
0.0091163720641525
0.0084469645522272
0.0077725686147971
0.0070927534564054
0.0064070455147216
0.0057155754526137
0.0050190748895573
0.0043185274990303
0.0036148937019992
0.0029090431784559
0.0022017974614688
0.0014939782981138
0.00078642927254532
8.0017494839621e-05
-0.00062437279848174
-0.0013258488915507
-0.0020235173377405
-0.002716489332858
-0.0034038832817573
-0.0040848277254346
-0.0047584672048308
-0.0054239729035374
-0.0060805375283331
-0.0067273734560173
-0.0073637219061185
-0.0079888555660281
-0.0086020789200082
-0.009202736115149
-0.0097902054070033
-0.010363912303138
-0.010923313854977
-0.011467926542664
-0.01199728701897
-0.012511013451107
-0.013008713124214
-0.013490122063125
-0.013954893667341
-0.014402916345359
-0.014833832251922
-0.015247758260803
-0.015644191179335
-0.016023638420012
-0.016385109742112
-0.016729770982728
-0.017055057875785
-0.017362562886368
-0.017643249789443
0.011711138288565
0.011028791998549
0.010322286582339
0.0096058488727589
0.0088857842972432
0.0081629145402163
0.007435944369664
0.0067036256972996
0.0059657600660359
0.005223121891316
0.0044768550741262
0.0037280262612674
0.0029775319085685
0.0022261814513084
0.0014747816447684
0.00072417245444249
-2.4771045193091e-05
-0.00077114938627184
-0.0015140516552015
-0.0022525665126152
-0.0029857895515227
-0.0037128264709121
-0.0044327954212842
-0.0051448294858978
-0.0058480803012122
-0.0065417204912965
-0.0072249478295691
-0.0078969890425179
-0.0085571074349373
-0.0092046006246675
-0.009838810903571
-0.010459115089647
-0.011064944671376
-0.01165575934454
-0.012231090905734
-0.01279047948524
-0.013333571726156
-0.013859973783171
-0.014369473002196
-0.014861703276586
-0.015336646621261
-0.015793875157879
-0.016233684751782
-0.016655375462297
-0.017059809021552
-0.017445471168543
-0.017814192737111
-0.018161889300113
-0.01849085376888
-0.018786317686303
0.012485382537581
0.01174497103533
0.010973368536319
0.010192111779347
0.0094102822858774
0.00862850258719
0.0078443056433883
0.0070554582542945
0.0062613778197907
0.0054629228737627
0.0046614527133732
0.003858167073182
0.0030539894470202
0.0022497078098009
0.0014461063118421
0.00064401759991718
-0.00015567684259096
-0.00095206368153556
-0.0017442162710834
-0.0025312088708774
-0.0033121248057661
-0.0040860584041185
-0.0048521158085429
-0.0056094164624985
-0.0063570983935989
-0.0070943257849171
-0.0078202921119195
-0.0085342206527967
-0.0092353744411784
-0.0099230520532149
-0.010596602403406
-0.0112554084072
-0.011898917182335
-0.012526599004158
-0.013138013070964
-0.013732711499764
-0.01431038598467
-0.01487064816203
-0.015413359060411
-0.015938133676673
-0.016445081159246
-0.016933690039259
-0.017404491610138
-0.017856543150433
-0.018291165110659
-0.018706194321969
-0.019104317495367
-0.019479570262797
-0.019835157820702
-0.020149178508147
0.013387899924355
0.012579369921112
0.011730856630784
0.010873210619507
0.010018926833012
0.0091682429088565
0.0083171593917326
0.0074622340119101
0.0066024575241516
0.0057388302339779
0.0048729903903283
0.0040062980332457
0.0031397020091732
0.002273958753935
0.0014098228226318
0.00054811769923195
-0.00031026784516164
-0.0011644056663577
-0.0020133532828286
-0.0028561712897954
-0.0036919321468803
-0.0045197208187051
-0.005338634776451
-0.0061477854892496
-0.0069463053753943
-0.0077333551616101
-0.008508127478496
-0.0092698470140817
-0.010017782975593
-0.010751241047343
-0.011469584543344
-0.012172209705114
-0.012858589062884
-0.013528211419856
-0.01418067674104
-0.014815556918317
-0.015432606137899
-0.016031447282794
-0.016612040186385
-0.017173980725064
-0.017717544200237
-0.018242120939107
-0.018748544043071
-0.01923557977499
-0.019705126805724
-0.020154242801183
-0.020586678493964
-0.020994216847134
-0.021381191071941
-0.021717118462106
0.014418250746032
0.013531906620417
0.012594766771647
0.011649309227066
0.01071213491719
0.0097828374877384
0.0088554557879999
0.0079250973572596
0.0069903005423396
0.0060522849668212
0.0051130406981672
0.0041741159604854
0.003236480906003
0.0023008495071341
0.0013679420307841
0.00043857457196865
-0.00048635240260997
-0.0014058917350988
-0.0023190825260888
-0.0032249706541949
-0.0041226175891452
-0.0050110993967545
-0.0058895058334449
-0.0067569414924908
-0.0076125341111517
-0.0084554425379172
-0.0092848610656917
-0.01010001801475
-0.010900192443817
-0.011684701543138
-0.012452929680482
-0.013204292232087
-0.013938297005693
-0.01465445844952
-0.01535243090666
-0.016031813601883
-0.016692443594998
-0.017333961056212
-0.017956454967377
-0.018559502536135
-0.019143593139747
-0.019708004525521
-0.020253951359114
-0.020779858933816
-0.021288342956653
-0.021775547212498
-0.022246522037015
-0.022690427813825
-0.02311299034028
-0.023473753876478
0.01557813203
0.014604494446016
0.013566926430382
0.012522216537267
0.011491823888921
0.010474347190925
0.0094613548189332
0.0084462481611404
0.0074271105326938
0.006405482968519
0.0053837902294909
0.004363795180824
0.0033464823019262
0.0023325125057921
0.0013225698139866
0.00031746879782247
-0.00068186985219121
-0.0016744727088282
-0.0026593552772459
-0.0036355450759201
-0.0046020897886734
-0.0055580539144748
-0.006502516821478
-0.0074345735241402
-0.0083533449918916
-0.009257987507341
-0.010147697614981
-0.011021708383208
-0.011879311313297
-0.012719836938778
-0.013542695640033
-0.014347326257236
-0.01513328116372
-0.015900106403299
-0.01664752589142
-0.017375172886154
-0.018082990422243
-0.018770641775204
-0.019438381398048
-0.020085768194268
-0.020713563056122
-0.021320916032043
-0.021909517711632
-0.022477400689358
-0.023028058202527
-0.023556585337859
-0.024069599474355
-0.024553280111372
-0.025015050156281
-0.025403125315971
0.016870836645038
0.01580054265794
0.014650532513092
0.013495009426503
0.012361096641108
0.011245933253311
0.010138018728439
0.0090287825158533
0.0079158834285592
0.0068013144469651
0.0056880262199175
0.0045780195006462
0.0034722816328903
0.0023714093949868
0.0012760526401138
0.00018703540914273
-0.00089468862380274
-0.001968108940232
-0.0030322093846919
-0.0040859927441569
-0.0051284869769652
-0.0061587390798595
-0.0071758124270644
-0.0081787871691099
-0.0091667728415389
-0.010138919120952
-0.011094421581895
-0.012032515345054
-0.012952504849995
-0.013853734321183
-0.014735643183147
-0.015597694228137
-0.016439492295085
-0.017260618234961
-0.018060880526275
-0.018839950555437
-0.019597903228858
-0.020334428182008
-0.021049987218781
-0.021744118720895
-0.022417922541728
-0.02307040350888
-0.023703838348712
-0.024315813296605
-0.024910882653409
-0.0254829592791
-0.02604052479465
-0.026566438941547
-0.027070173989782
-0.027487365803089
0.018300758019663
0.017124512680611
0.015849771310099
0.014571720228012
0.013323989367763
0.012101652203062
0.010889445200627
0.0096765616074832
0.008460310197811
0.0072432986049603
0.0060291007556692
0.0048199710310202
0.0036168827805581
0.0024203590928145
0.0012310227193936
4.9724006624559e-05
-0.0011225325959472
-0.0022846852841866
-0.0034356752230881
-0.0045744707357556
-0.0057000704446064
-0.0068114938098577
-0.0079077784393794
-0.0089879803686952
-0.01005119018585
-0.011096545396364
-0.012123235049276
-0.013130488232366
-0.01411761611746
-0.015083971013186
-0.016029022868992
-0.016952257007654
-0.017853336665653
-0.018731875452586
-0.019587780983678
-0.020420762278298
-0.021231054025204
-0.022018370558051
-0.022783428976667
-0.023525739741325
-0.024246820039072
-0.024945506520891
-0.025624789165784
-0.026281751018919
-0.026922214116354
-0.027538782771622
-0.028142129419967
-0.028711500659472
-0.029258820699722
-0.029706085761288
0.019872901192172
0.018581473452932
0.017169437537816
0.015757020867082
0.014385207644773
0.013046229879029
0.011720271132898
0.010394043386455
0.0090646390910333
0.0077354767950324
0.0064108510913825
0.0050932749056787
0.0037836849229887
0.002482523441505
0.0011904009511408
-9.1781592608825e-05
-0.0013629461983088
-0.002621961754828
-0.0038677124335165
-0.0050991188867024
-0.0063151366354584
-0.0075147432936367
-0.0086969364856575
-0.009860734087622
-0.011005193584651
-0.012129427491495
-0.013232611538006
-0.014313963114848
-0.015372790423631
-0.016408437413002
-0.017420397718276
-0.01840817286877
-0.019371489785199
-0.020309987539716
-0.021223685072054
-0.02211232109805
-0.022976319797181
-0.02381541092157
-0.024630620789633
-0.025421416436281
-0.026189822904008
-0.026934477550681
-0.027659228965311
-0.028360592931067
-0.029045888131
-0.029706290527586
-0.030355014979882
-0.03096746749738
-0.03155848097074
-0.032035647320592
0.021592382234415
0.020176641283688
0.01861453490664
0.017055887906749
0.015549846110941
0.014084821204655
0.012635563250033
0.011186101768314
0.0097335223038974
0.0082822863901871
0.0068375011462721
0.0054019256995419
0.003976430804004
0.0025613768194821
0.0011573865051321
-0.00023455598505048
-0.0016132707044181
-0.0029775358765852
-0.0043261608426855
-0.005658000620406
-0.0069719478316086
-0.008266917987485
-0.0095418487135811
-0.010795702449422
-0.01202748834703
-0.013236277017574
-0.014421212562088
-0.01558148109086
-0.016716375489295
-0.017825218969706
-0.018907518848156
-0.019962775605425
-0.020990776106591
-0.021991170627736
-0.022964098724102
-0.023909312840178
-0.024827453919514
-0.025718247717664
-0.026583086685445
-0.02742136899424
-0.028235728234299
-0.029024564149914
-0.02979274795252
-0.030536162018885
-0.031263872568507
-0.031965516073378
-0.032657217854347
-0.033310389766753
-0.033943278039736
-0.034448708213469
0.023463918714014
0.021914911962788
0.020189882701643
0.018473274427281
0.016823095959366
0.015222738725607
0.013640574777732
0.012057822777421
0.010471854468896
0.008888433611461
0.0073135575039153
0.0057502022339315
0.0041991404566297
0.0026606580910406
0.0011354271206058
-0.00037544329219081
-0.0018706384588112
-0.0033488211528515
-0.0048087045211218
-0.006249055379019
-0.00766867771585
-0.0090663962905645
-0.010441060056176
-0.011791552537859
-0.013116806182053
-0.014415837739486
-0.015687759771551
-0.016931686452819
-0.018146849045786
-0.019332532787242
-0.020488254989533
-0.02161349733406
-0.022708088604561
-0.023771669220454
-0.024804497652618
-0.025806319895817
-0.026778008817805
-0.02771926089619
-0.028631880924602
-0.029515166902518
-0.030372455642283
-0.031201870399608
-0.032009470971906
-0.032790454536382
-0.033555898393746
-0.034293827942956
-0.035023665259953
-0.035712776037847
-0.036383372095361
-0.036913648093029
0.025491342118652
0.023800377662864
0.021899675830893
0.020013758156559
0.018209984188605
0.016465232581667
0.014740522138713
0.013014278926559
0.011284569053994
0.0095587295344705
0.0078436864383347
0.0061425750497276
0.0044560394184971
0.002784317015245
0.0011281829207663
-0.00051107815576326
-0.0021319791539744
-0.003733039930288
-0.0053128523843668
-0.0068700661141322
-0.00840336860299
-0.0099114541632223
-0.01139303700786
-0.01284688875194
-0.014271849802349
-0.01566687472258
-0.017031009451615
-0.018363237159777
-0.019662699095938
-0.02092862641654
-0.022160513163934
-0.023357797378898
-0.024520318515849
-0.025647692470672
-0.026740267402591
-0.027797774026186
-0.028821294659807
-0.029810490596921
-0.030767576862452
-0.031691746589743
-0.032587076631254
-0.033451412630535
-0.034292100840951
-0.035103665367177
-0.035899386428342
-0.036665724372041
-0.037425746468264
-0.038142927351944
-0.038844113716416
-0.039393603839603
0.027677187564698
0.025835997073524
0.023747157285584
0.021681157792375
0.019714972755728
0.017817152590378
0.015940345053327
0.014060352828252
0.012176479091969
0.010297932027622
0.0084325637990684
0.006583575685004
0.0047514529282308
0.0029364323479704
0.0011394662173749
-0.00063792485485667
-0.0023940413164182
-0.0041272288351792
-0.0058359237419
-0.0075186283238268
-0.0091738778991495
-0.010800214763941
-0.012396184299226
-0.013960243007553
-0.015491179261608
-0.016988078772488
-0.018449711997812
-0.019874799220564
-0.021262409627373
-0.022611726794704
-0.023922165318983
-0.025193090664446
-0.026424294627045
-0.027615368911583
-0.028766672486094
-0.029877948218988
-0.030950384935114
-0.031983679137675
-0.032980328837747
-0.033939538799857
-0.034865986963739
-0.035757412458718
-0.036622313117501
-0.037454798737285
-0.038270227056575
-0.039053892930978
-0.039832467310579
-0.040566186116614
-0.041286993893266
-0.041846937212168
0.030022420454738
0.028023027968896
0.025733923264872
0.02347825993641
0.021341919368201
0.019282797305874
0.017244426559988
0.015200473393567
0.013152096303656
0.011110620199873
0.0090847664212062
0.0070776922169561
0.005089710137427
0.0031211314067517
0.0011731773510765
-0.00075232881392665
-0.002653431989289
-0.004528265581102
-0.0063750687715297
-0.0081921434589195
-0.0099778112251948
-0.011730469394709
-0.013448463969247
-0.015129926984606