/*--------------------------------*- C++ -*----------------------------------*\
| =========                 |                                                 |
| \\      /  F ield         | OpenFOAM: The Open Source CFD Toolbox           |
|  \\    /   O peration     | Version:  2112                                  |
|   \\  /    A nd           | Website:  www.openfoam.com                      |
|    \\/     M anipulation  |                                                 |
\*---------------------------------------------------------------------------*/
FoamFile
{
    version     2.0;
    format      ascii;
    arch        "LSB;label=32;scalar=64";
    class       volVectorField;
    location    "18.9";
    object      U;
}
// * * * * * * * * * * * * * * * * * * * * * * * * * * * * * * * * * * * * * //

dimensions      [0 1 -1 0 0 0 0];

internalField   nonuniform List<vector> 
22000
(
(1.0000010587 -2.5965017965611e-05 0)
(1.0000268849527 -7.7674907737388e-05 0)
(1.0000763636836 -0.00012926766692004 0)
(1.0001507739047 -0.0001808416825213 0)
(1.0002506106428 -0.00023235238564679 0)
(1.0003758093504 -0.00028368285831776 0)
(1.0005260799237 -0.00033471638424043 0)
(1.0007011143112 -0.00038537801212714 0)
(1.0009006491219 -0.00043561628386739 0)
(1.0011244789206 -0.00048541967905218 0)
(1.0013724110499 -0.00053476441688033 0)
(1.0016442627486 -0.00058366347357052 0)
(1.0019398108866 -0.00063206362439789 0)
(1.0022588391758 -0.00067998146118154 0)
(1.0026010622497 -0.00072729072782526 0)
(1.0029662333733 -0.00077405554635156 0)
(1.0033539880436 -0.0008200452699241 0)
(1.0037640731988 -0.00086548951689166 0)
(1.0041960250952 -0.00090993823417172 0)
(1.0046496412362 -0.00095397952313058 0)
(1.005124300064 -0.00099661510725014 0)
(1.0056199288251 -0.001039219444301 0)
(1.0061355940808 -0.0010795344535624 0)
(1.0066715014567 -0.0011207691324079 0)
(1.0072261249536 -0.0011578359553894 0)
(1.0078002888768 -0.0011981928342433 0)
(1.0083913784817 -0.0012303275079593 0)
(1.0090015273204 -0.0012714048281217 0)
(1.009626108231 -0.0012952656215109 0)
(1.0102699963605 -0.0013411536280246 0)
(1.0000005073401 -7.6405456309755e-05 0)
(1.000026304798 -0.00022876525016325 0)
(1.0000760546013 -0.00038098073231439 0)
(1.0001509815982 -0.0005332543341343 0)
(1.0002516143819 -0.00068538355270553 0)
(1.0003779359364 -0.00083699590858593 0)
(1.0005296818418 -0.00098775134793696 0)
(1.0007065582041 -0.0011374406761664 0)
(1.0009082979104 -0.001285919401475 0)
(1.0011347060307 -0.0014331544019019 0)
(1.0013855826298 -0.001579076249648 0)
(1.001660772291 -0.0017237220847708 0)
(1.0019600352687 -0.0018669368037497 0)
(1.0022832073532 -0.0020087633057064 0)
(1.0026299527298 -0.0021488293692649 0)
(1.003000120799 -0.002287309755442 0)
(1.0033932210685 -0.0024235337717534 0)
(1.0038091984386 -0.0025581583277041 0)
(1.0042473094562 -0.0026898932378806 0)
(1.0047077806905 -0.0028204279390288 0)
(1.0051893817638 -0.0029469047955634 0)
(1.005692966029 -0.0030732533746085 0)
(1.0062162712164 -0.0031930141113452 0)
(1.0067614912091 -0.0033153343408084 0)
(1.007324224332 -0.0034257014222697 0)
(1.0079095424564 -0.003545333885832 0)
(1.0085086951554 -0.0036414950258334 0)
(1.0091328488763 -0.0037629221821909 0)
(1.009764392138 -0.0038354493537507 0)
(1.0104275977527 -0.00397018908929 0)
(1.0000005376936 -0.00012474697915155 0)
(1.0000272853067 -0.00037376128547566 0)
(1.000078803405 -0.00062282733730566 0)
(1.000156265505 -0.00087212263692821 0)
(1.0002601313645 -0.0011211776723655 0)
(1.0003903361514 -0.0013693396505401 0)
(1.0005465893865 -0.0016160832201334 0)
(1.0007286017673 -0.0018611154308059 0)
(1.0009361059151 -0.0021042312424416 0)
(1.0011689294316 -0.002345391191065 0)
(1.0014268651955 -0.0025844858503021 0)
(1.0017097992924 -0.002821582989311 0)
(1.0020174673988 -0.0030564271064099 0)
(1.0023497842078 -0.0032890903151668 0)
(1.0027063384441 -0.0035189446441687 0)
(1.0030871274088 -0.0037462772778219 0)
(1.0034914667775 -0.0039699634754568 0)
(1.0039196098002 -0.004191110637028 0)
(1.0043703727493 -0.0044075728135137 0)
(1.0048446637906 -0.0046221999693064 0)
(1.0053402714748 -0.0048302259561006 0)
(1.0058595561521 -0.0050382493969578 0)
(1.0063980592754 -0.0052354625000074 0)
(1.0069612952007 -0.0054371930507556 0)
(1.0075399719397 -0.0056191379476308 0)
(1.0081464556904 -0.0058168381742714 0)
(1.0087612295846 -0.0059754665716294 0)
(1.0094114637178 -0.0061766596418759 0)
(1.0100559673719 -0.0062962000809842 0)
(1.0107547097285 -0.0065202037156315 0)
(1.0000005577834 -0.00017198989599124 0)
(1.0000283337864 -0.00051551049097019 0)
(1.0000818853897 -0.00085934389124714 0)
(1.0001624295863 -0.0012035240465328 0)
(1.0002703803472 -0.0015472161986442 0)
(1.0004055970595 -0.0018894858606224 0)
(1.0005677265541 -0.0022296922170726 0)
(1.0007564685287 -0.0025675389086938 0)
(1.0009715508121 -0.0029028130262062 0)
(1.0012128349506 -0.0032354978315947 0)
(1.0014801081378 -0.0035654569871002 0)
(1.001773317691 -0.0038928037528822 0)
(1.0020921680649 -0.0042171854810111 0)
(1.002436686385 -0.0045387124895111 0)
(1.0028063597399 -0.0048564848959852 0)
(1.0032013948921 -0.0051709117360798 0)
(1.0036208422373 -0.0054803859551288 0)
(1.004065388704 -0.005786509027794 0)
(1.00453324263 -0.0060862364421532 0)
(1.0050262664002 -0.0063836845845911 0)
(1.0055408864839 -0.006672067752041 0)
(1.0060815706484 -0.0069608649214825 0)
(1.0066408005915 -0.0072346304552481 0)
(1.0072287330419 -0.0075153219378465 0)
(1.007829252567 -0.0077681610693264 0)
(1.0084649304124 -0.0080440267531694 0)
(1.0091012203413 -0.0082644309010775 0)
(1.0097877012186 -0.008546238291943 0)
(1.0104502586703 -0.0087115894180275 0)
(1.011198865662 -0.009026953523646 0)
(1.000000579704 -0.00021830993001282 0)
(1.0000294922449 -0.00065463238114645 0)
(1.0000853132081 -0.0010916656201057 0)
(1.0001693251645 -0.0015291185132644 0)
(1.0002818991267 -0.0019656563002509 0)
(1.0004228081428 -0.0024000608230863 0)
(1.0005916229821 -0.0028316648184811 0)
(1.0007880298677 -0.0032602687552755 0)
(1.001011752657 -0.0036857161051092 0)
(1.0012626999465 -0.0041080480910858 0)
(1.001540658443 -0.0045271180249613 0)
(1.0018456594168 -0.0049431044231404 0)
(1.0021773763248 -0.0053555624169516 0)
(1.0025359847185 -0.0057646519057124 0)
(1.0029208531757 -0.00616917945092 0)
(1.0033324581259 -0.0065696866008095 0)
(1.0037695275355 -0.0069640466743069 0)
(1.0042332984186 -0.0073544109262248 0)
(1.0047212299788 -0.0077367812387715 0)
(1.0052363866945 -0.0081166772102262 0)
(1.0057735053314 -0.0084851490208337 0)
(1.0063396995742 -0.0088548282240227 0)
(1.0069236397984 -0.0092052524761501 0)
(1.0075413024133 -0.0095655913141679 0)
(1.0081680504022 -0.0098896967898736 0)
(1.0088392411021 -0.010245112805835 0)
(1.009501528178 -0.010527644047006 0)
(1.0102325584901 -0.010892444865024 0)
(1.0109169762122 -0.01110334266683 0)
(1.0117274152151 -0.011514202567845 0)
(1.0000006020147 -0.00026375489967759 0)
(1.0000306812824 -0.00079130730259624 0)
(1.000088850135 -0.0013201550390913 0)
(1.0001764648101 -0.0018494756175381 0)
(1.0002938463879 -0.0023772736498219 0)
(1.0004406708232 -0.0029020390169374 0)
(1.0006164257989 -0.0034231771579178 0)
(1.0008207885448 -0.0039406994968167 0)
(1.0010534856024 -0.0044545796201769 0)
(1.0013144886645 -0.0049649571076371 0)
(1.0016035932896 -0.005471694236332 0)
(1.0019209393263 -0.0059750574665873 0)
(1.002266175768 -0.0064745160378993 0)
(1.0026396635097 -0.0069702922217445 0)
(1.0030406456414 -0.0074608752257866 0)
(1.0034699258836 -0.0079469504535605 0)
(1.0039258695545 -0.0084258309075828 0)
(1.0044103691029 -0.0089002796104746 0)
(1.0049200245894 -0.009365285911062 0)
(1.0054593193335 -0.0098279248703479 0)
(1.0060210338606 -0.010276924373686 0)
(1.0066153909351 -0.010728370492853 0)
(1.0072266223989 -0.011156363483199 0)
(1.007877531228 -0.011597932774012 0)
(1.0085335214017 -0.011994560850466 0)
(1.0092449390602 -0.012431943124415 0)
(1.0099364256387 -0.012777873228072 0)
(1.0107185365612 -0.013229245554815 0)
(1.0114275666692 -0.013486272953311 0)
(1.0123097191824 -0.013998195387045 0)
(1.0000006219941 -0.00030824389167162 0)
(1.0000318008101 -0.00092531321821356 0)
(1.000092209873 -0.0015444739368224 0)
(1.000183283697 -0.0021641511345857 0)
(1.0003052861288 -0.0027815159556511 0)
(1.0004577863944 -0.0033947579666902 0)
(1.0006401851252 -0.0040034636989237 0)
(1.0008521579719 -0.0046079804370265 0)
(1.0010934446414 -0.0052084935925202 0)
(1.0013640981436 -0.005805286458085 0)
(1.0016639362981 -0.0063982533968749 0)
(1.001993233438 -0.006987774749463 0)
(1.0023516267205 -0.0075732432922853 0)
(1.0027396992629 -0.0081549581597387 0)
(1.003156571819 -0.0087310688111254 0)
(1.0036034291391 -0.0093024161622354 0)
(1.0040782516711 -0.0098657144520907 0)
(1.0045836794135 -0.010424402549004 0)
(1.0051153771533 -0.010972403449378 0)
(1.0056794292213 -0.011518503419022 0)
(1.00626645995 -0.012048954624504 0)
(1.0068901829795 -0.012583602074826 0)
(1.0075299014615 -0.013090686772565 0)
(1.0082160675319 -0.013615750742973 0)
(1.0089029775901 -0.01408688946634 0)
(1.0096577676599 -0.01460946072112 0)
(1.0103804671162 -0.015020879432029 0)
(1.0112185102306 -0.015563324857579 0)
(1.0119540471626 -0.015867897484984 0)
(1.0129158832648 -0.016487498135425 0)
(1.0000006378333 -0.00035158089969377 0)
(1.0000327530353 -0.0010560765575906 0)
(1.0000951098597 -0.0017636868245923 0)
(1.0001892241891 -0.0024718550443144 0)
(1.0003152966103 -0.0031767412206524 0)
(1.0004727826377 -0.0038762291857058 0)
(1.00066099433 -0.0045702031642483 0)
(1.0008796143765 -0.005259479527846 0)
(1.0011284082972 -0.0059445437338383 0)
(1.0014075297714 -0.0066258723719694 0)
(1.0017168360349 -0.0073034191827036 0)
(1.0020567625582 -0.0079777073890627 0)
(1.0024269531521 -0.0086480670146026 0)
(1.0028282490155 -0.0093148901537125 0)
(1.00325966189 -0.0099759683705995 0)
(1.0037228062445 -0.010632309326278 0)
(1.0042152743793 -0.011279996869012 0)
(1.0047405311581 -0.011923207684005 0)
(1.0052932664586 -0.012554757163384 0)
(1.0058813102038 -0.013185291086968 0)
(1.0064930034333 -0.01379845290638 0)
(1.0071458444833 -0.014418130277989 0)
(1.0078138661282 -0.015006316541191 0)
(1.0085357978932 -0.015617674556109 0)
(1.0092539882245 -0.016165953193179 0)
(1.0100537362865 -0.016777601882041 0)
(1.0108085118761 -0.017257386206488 0)
(1.0117056733029 -0.017896184310923 0)
(1.0124688123828 -0.018250631144027 0)
(1.0135163866591 -0.018985399782903 0)
(1.0000006473214 -0.00039348654172458 0)
(1.0000334460145 -0.0011827683260703 0)
(1.0000972835441 -0.0019764248041002 0)
(1.0001937585396 -0.0027706860673986 0)
(1.0003230057177 -0.0035605237627429 0)
(1.0004843626446 -0.0043435145570213 0)
(1.0006770529977 -0.0051199630763594 0)
(1.0009007752226 -0.005891293410912 0)
(1.0011553347652 -0.0066583839170618 0)
(1.001441005558 -0.007421956988859 0)
(1.0017577043409 -0.0081820569183037 0)
(1.0021060538505 -0.0089393810927174 0)
(1.0024857280552 -0.0096932154855313 0)
(1.0028978596342 -0.010444062361109 0)
(1.0033413743937 -0.011189344126562 0)
(1.0038183585343 -0.011930245182558 0)
(1.0043260322873 -0.012662199044325 0)
(1.0048687457111 -0.01339017627804 0)
(1.0054402124439 -0.014105864286681 0)
(1.0060501118926 -0.014821899011645 0)
(1.0066844512565 -0.01551921963954 0)
(1.0073647145262 -0.016225996802471 0)
(1.0080594797134 -0.016897658041076 0)
(1.0088161736845 -0.017598501368101 0)
(1.0095646847596 -0.018227105154554 0)
(1.0104093978102 -0.018932250051319 0)
(1.0111959603834 -0.019484043745578 0)
(1.0121537285928 -0.020225109762204 0)
(1.0129447771171 -0.020632757850185 0)
(1.0140821918655 -0.021490859568054 0)
(1.0000006489585 -0.00043363096658972 0)
(1.0000337976309 -0.0013044031747215 0)
(1.0000984910612 -0.0021810512339201 0)
(1.0001964124811 -0.003058363038855 0)
(1.0003276301751 -0.0039299491224022 0)
(1.0004913608446 -0.0047930820740638 0)
(1.0006867405414 -0.0056486131995518 0)
(1.0009134918501 -0.0064987147691639 0)
(1.0011714752932 -0.0073447532329907 0)
(1.0014611038829 -0.008187750924013 0)
(1.0017823755033 -0.0090278776690347 0)
(1.0021361240106 -0.0098660380205228 0)
(1.0025220806867 -0.010701498407828 0)
(1.0029416990346 -0.011534889239292 0)
(1.0033938508288 -0.012363262047254 0)
(1.0038811277021 -0.013187986095717 0)
(1.004400412795 -0.014003841093599 0)
(1.0049569828338 -0.01481663816811 0)
(1.0055436126201 -0.015616945320971 0)
(1.0061718913331 -0.016419492118043 0)
(1.0068255211449 -0.01720247185259 0)
(1.0075300742495 -0.017998513894581 0)
(1.0082486525574 -0.01875626730514 0)
(1.0090375862413 -0.019550038838591 0)
(1.0098141292985 -0.020262622945144 0)
(1.010702207587 -0.021066077484041 0)
(1.0115190963211 -0.021694263071742 0)
(1.01253722227 -0.022544002069035 0)
(1.0133556858786 -0.023009246200964 0)
(1.014585049953 -0.023999321815676 0)
(1.0000006414874 -0.00047166511285455 0)
(1.0000337409893 -0.0014199340140819 0)
(1.0000985352251 -0.0023758160742575 0)
(1.0001967946241 -0.0033324348815127 0)
(1.0003285191847 -0.0042818773678926 0)
(1.0004928000106 -0.0052211209247396 0)
(1.0006886874208 -0.0061516905585456 0)
(1.0009159370601 -0.0070766452685522 0)
(1.001174480138 -0.0079979347106165 0)
(1.0014648853095 -0.0089169354248497 0)
(1.0017872534349 -0.0098339812381886 0)
(1.0021426497641 -0.010750217922902 0)
(1.0025308923573 -0.011664923327151 0)
(1.0029537790646 -0.012578874281383 0)
(1.0034101666878 -0.013488761525143 0)
(1.0039031757518 -0.014396144607364 0)
(1.0044294047423 -0.015295166621877 0)
(1.0049950777411 -0.016192513098822 0)
(1.0055921056861 -0.017077677612046 0)
(1.0062340025147 -0.017967550673819 0)
(1.0069022721756 -0.018837607563135 0)
(1.0076265783343 -0.019725027718558 0)
(1.0083646888674 -0.020571608315852 0)
(1.0091818244568 -0.021461853590679 0)
(1.0099827740543 -0.022262442777425 0)
(1.0109109913542 -0.023169265085287 0)
(1.0117555437305 -0.023878917376305 0)
(1.0128319985184 -0.024844063535343 0)
(1.0136765383781 -0.025372418168032 0)
(1.0149979167682 -0.026503377649903 0)
(1.0000006239952 -0.00050724487172365 0)
(1.0000332244834 -0.0015283219584537 0)
(1.0000972695305 -0.0025589725908905 0)
(1.0001946095746 -0.0035904472924978 0)
(1.0003251699647 -0.004613161572274 0)
(1.0004879133628 -0.0056238110924143 0)
(1.000681809328 -0.0066247182939981 0)
(1.0009066554464 -0.0076199615995896 0)
(1.0011624683258 -0.0086121666612152 0)
(1.0014499849973 -0.0096031172302255 0)
(1.0017694293982 -0.010593352404931 0)
(1.0021221130187 -0.011584293070856 0)
(1.0025079706289 -0.012575265933284 0)
(1.0029291604817 -0.013567212104401 0)
(1.0033845683855 -0.014556485183997 0)
(1.0038778550882 -0.015544836784351 0)
(1.0044054015861 -0.016525814771994 0)
(1.0049743778089 -0.017506996843906 0)
(1.0055759402259 -0.018476890148622 0)
(1.0062254964329 -0.019454569181921 0)
(1.0069025336291 -0.020412903022324 0)
(1.0076407110442 -0.021393609968582 0)
(1.0083927625956 -0.022331733080617 0)
(1.0092325752305 -0.023321936840702 0)
(1.0100529740121 -0.024214805549682 0)
(1.0110164687284 -0.025230127714512 0)
(1.0118847852302 -0.026026941751772 0)
(1.013015725215 -0.027114373950603 0)
(1.0138840836976 -0.027712499702404 0)
(1.0152954486258 -0.028993292274369 0)
(1.0000005957246 -0.00054005109856321 0)
(1.0000322153493 -0.0016285957975561 0)
(1.0000945944252 -0.0027288809231385 0)
(1.0001896494933 -0.0038300930602961 0)
(1.0003172253419 -0.0049208441873991 0)
(1.0004761555114 -0.0059975641739586 0)
(1.0006653347996 -0.007063489657984 0)
(1.0008846090015 -0.008123841673462 0)
(1.0011340914871 -0.0091820096630006 0)
(1.0014146952103 -0.010240234355225 0)
(1.0017267847395 -0.011299303186802 0)
(1.0020719261989 -0.012360944887271 0)
(1.0024501992132 -0.013424578761885 0)
(1.0028641291065 -0.014491326690906 0)
(1.0033126770474 -0.015557243488077 0)
(1.0038000418584 -0.016624269943021 0)
(1.0043224655792 -0.017685427001276 0)
(1.0048880392653 -0.018749183108828 0)
(1.0054873038601 -0.019803195493337 0)
(1.0061374842916 -0.020868693983731 0)
(1.0068162991684 -0.02191615004746 0)
(1.007561213371 -0.022991690632975 0)
(1.0083203731094 -0.024023903277516 0)
(1.0091759045188 -0.025117311557568 0)
(1.010009484136 -0.026106842249451 0)
(1.0110017762681 -0.027235676321392 0)
(1.0118886871401 -0.028125865859186 0)
(1.0130684313048 -0.029342392604627 0)
(1.0139573386402 -0.030018087639688 0)
(1.0154545267626 -0.031457436958225 0)
(1.0000005567977 -0.0005698091431213 0)
(1.0000306971297 -0.0017199139623102 0)
(1.0000904566947 -0.0028841107459534 0)
(1.0001818008862 -0.0040493514313425 0)
(1.0003044874577 -0.0052023301127487 0)
(1.0004572210318 -0.00633922877521 0)
(1.0006388275282 -0.0074643054226482 0)
(1.0008492043628 -0.0085840342344556 0)
(1.0010885695435 -0.0097026487997801 0)
(1.0013580131285 -0.010822891393836 0)
(1.0016580527057 -0.011945841144648 0)
(1.0019905093013 -0.013073564520021 0)
(1.0023556323509 -0.014205622796753 0)
(1.0027563105494 -0.015343332801352 0)
(1.0031916261662 -0.016482503925618 0)
(1.0036662992376 -0.017625257259247 0)
(1.0041765186935 -0.018764183661048 0)
(1.0047312485834 -0.019908618753863 0)
(1.0053205764155 -0.021045558935166 0)
(1.0059634244517 -0.022198302206707 0)
(1.0066360479226 -0.023335238827624 0)
(1.0073794391465 -0.024506639971186 0)
(1.0081377316044 -0.025635164404495 0)
(1.0090006809141 -0.026834593780774 0)
(1.0098399095579 -0.027925115160584 0)
(1.010852943652 -0.029172135775154 0)
(1.0117519896107 -0.030162298718461 0)
(1.0129730255844 -0.031514414947197 0)
(1.0138780958868 -0.032276563008924 0)
(1.0154547896939 -0.033882667064313 0)
(1.0000005072303 -0.00059630311404742 0)
(1.0000286706518 -0.0018016066686381 0)
(1.0000848534683 -0.003023511142226 0)
(1.0001710493496 -0.0042465859578093 0)
(1.0002869226766 -0.0054555125401426 0)
(1.0004310496978 -0.0066462438780914 0)
(1.0006021927327 -0.0078241540194406 0)
(1.0008003007753 -0.008997065322759 0)
(1.0010256998689 -0.010170126471281 0)
(1.0012796518537 -0.011346619426845 0)
(1.0015628343334 -0.012527957401095 0)
(1.0018773142844 -0.013716570083926 0)
(1.0022235296871 -0.014912214101743 0)
(1.002604717536 -0.016116411566106 0)
(1.0030201241424 -0.017324794520138 0)
(1.0034749585503 -0.018539648178336 0)
(1.0039654453762 -0.019753259040918 0)
(1.0045013501537 -0.020975781175951 0)
(1.005072485388 -0.022193794635851 0)
(1.0056993092597 -0.023432513019624 0)
(1.006356963985 -0.024658679786098 0)
(1.0070896106785 -0.025926295245235 0)
(1.007838054201 -0.027152872640233 0)
(1.0086989032256 -0.02846051108446 0)
(1.0095350633234 -0.029656121517764 0)
(1.0105592921324 -0.031025426226984 0)
(1.0114627199483 -0.032122377951098 0)
(1.0127157396856 -0.033615987651525 0)
(1.0136313736437 -0.034474481284717 0)
(1.015279094669 -0.036254652144276 0)
(1.0000004477901 -0.00061938365400274 0)
(1.0000261530766 -0.0018732001173419 0)
(1.0000778287747 -0.0031462529023471 0)
(1.0001574738394 -0.0044206058783267 0)
(1.00026465247 -0.0056788533121577 0)
(1.0003978137265 -0.0069167379262494 0)
(1.0005556606001 -0.0081408297028083 0)
(1.0007381897118 -0.0093603764908459 0)
(1.0009458335638 -0.010581501619358 0)
(1.0011800136344 -0.011808057175479 0)
(1.0014415683262 -0.013041830588607 0)
(1.001732792821 -0.014285635190715 0)
(1.0020543255355 -0.015539478696322 0)
(1.0024097240157 -0.016805093655956 0)
(1.0027984354738 -0.018078015353584 0)
(1.0032261104152 -0.019360668444498 0)
(1.0036890974074 -0.020645188724191 0)
(1.0041978683428 -0.021942472001192 0)
(1.0047421499734 -0.023238983430886 0)
(1.0053437331832 -0.024561626261687 0)
(1.0059770359677 -0.025876061269055 0)
(1.0066889483105 -0.027239428908762 0)
(1.0074177298651 -0.028565177049429 0)
(1.0082659081405 -0.029982376750165 0)
(1.0090892196596 -0.031286779459717 0)
(1.0101137237631 -0.032781608926491 0)
(1.0110125168569 -0.033992208859948 0)
(1.0122864727435 -0.035632299563454 0)
(1.0132057820987 -0.036597863053469 0)
(1.0149139242084 -0.038558276836426 0)
(1.0000003791914 -0.00063897136029489 0)
(1.0000231765984 -0.0019344278444969 0)
(1.0000694695894 -0.0032518489510399 0)
(1.0001412372972 -0.0045706958305387 0)
(1.0002379376676 -0.0058714217438546 0)
(1.0003578943072 -0.0071495769891287 0)
(1.0004997540323 -0.0084129908624638 0)
(1.0006635534396 -0.0096723950668593 0)
(1.0008498244628 -0.010934934071846 0)
(1.0010601293235 -0.012205051842085 0)
(1.0012954612124 -0.013484945759756 0)
(1.0015583172213 -0.014777827642528 0)
(1.0018495405702 -0.016084012400927 0)
(1.0021729703545 -0.017405443557746 0)
(1.002528283813 -0.018737649302773 0)
(1.0029215085883 -0.020083160276262 0)
(1.0033492026917 -0.021434138701942 0)
(1.0038224236654 -0.022802116709825 0)
(1.0043310125407 -0.024173801654821 0)
(1.0048978381698 -0.025577478620328 0)
(1.0054970328052 -0.026978435199517 0)
(1.006177659017 -0.028436148733189 0)
(1.0068763697324 -0.029861455040993 0)
(1.0077004055607 -0.031388511899685 0)
(1.0085002693152 -0.032804894861094 0)
(1.0095128373419 -0.03442733725936 0)
(1.0103969026598 -0.035758286876797 0)
(1.01167905584 -0.037548599487766 0)
(1.0125937545844 -0.038632634628534 0)
(1.0143495352641 -0.040777158628407 0)
(1.0000003027983 -0.00065505614827584 0)
(1.0000197860346 -0.0019852299674941 0)
(1.0000598991014 -0.0033401551189237 0)
(1.0001225741863 -0.004696618811206 0)
(1.0002071571081 -0.0060328992409175 0)
(1.0003118493209 -0.0073443704341728 0)
(1.0004352435235 -0.0086401669905433 0)
(1.000577405257 -0.0099325439374962 0)
(1.0007389539885 -0.01122969968712 0)
(1.000921568205 -0.012536683501297 0)
(1.0011263824368 -0.013856131351328 0)
(1.0013560610263 -0.015191662571413 0)
(1.0016116475197 -0.016543950951373 0)
(1.0018972135541 -0.017915149403661 0)
(1.0022126877565 -0.019300871818175 0)
(1.0025643951183 -0.020703718528062 0)
(1.0029491851873 -0.022116066693242 0)
(1.0033785480408 -0.023549959582103 0)
(1.0038426622552 -0.024992742271546 0)
(1.0043651325279 -0.026473706011108 0)
(1.0049203631418 -0.027958599891805 0)
(1.0055587641917 -0.029508236013221 0)
(1.0062167562432 -0.031032648086846 0)
(1.0070042833525 -0.032668642522795 0)
(1.0077698462455 -0.034199585198746 0)
(1.0087566432049 -0.035950145252215 0)
(1.0096157274084 -0.037408325683433 0)
(1.0108911011014 -0.039350287185277 0)
(1.0117925103758 -0.040565461124688 0)
(1.0135794652761 -0.042895409491851 0)
(1.0000002199412 -0.00066769219090017 0)
(1.0000160354949 -0.002025739777298 0)
(1.0000492679274 -0.0034113511209974 0)
(1.0001017742519 -0.0047985940526729 0)
(1.0001727833477 -0.0061635557457581 0)
(1.0002603785557 -0.0075014464399276 0)
(1.0003630987577 -0.008822733010466 0)
(1.0004810242214 -0.010141214161047 0)
(1.0006148452866 -0.011466160514908 0)
(1.0007663292722 -0.01280323349718 0)
(1.0009367328177 -0.014155529002437 0)
(1.001128847066 -0.015527080392743 0)
(1.0013439002334 -0.016918961132083 0)
(1.0015861384696 -0.018333533760036 0)
(1.0018557520181 -0.01976657936502 0)
(1.0021592721807 -0.021220744705037 0)
(1.0024939180823 -0.022688791921465 0)
(1.0028714261606 -0.024183171467636 0)
(1.0032825630686 -0.025692228659984 0)
(1.003751220931 -0.027245921015864 0)
(1.0042527860678 -0.028811257292312 0)
(1.0048378631268 -0.030449417764413 0)
(1.0054445343004 -0.032071475479795 0)
(1.0061824854594 -0.033814285191442 0)
(1.0069030066469 -0.035461529281161 0)
(1.0078483237016 -0.037338966528406 0)
(1.0086733593989 -0.038931290294961 0)
(1.0099218183122 -0.041023619624954 0)
(1.0108077948335 -0.042384745296762 0)
(1.0125936273362 -0.04489527747939 0)
(1.0000001322798 -0.00067698793615395 0)
(1.0000119811523 -0.0020562549719677 0)
(1.0000377358327 -0.0034658965746301 0)
(1.0000791516314 -0.0048772410463135 0)
(1.0001353387428 -0.0062641854870308 0)
(1.0002042678191 -0.0076217831858022 0)
(1.000284421491 -0.0089618411717061 0)
(1.0003758762179 -0.010299703317003 0)
(1.0004793712475 -0.01164571402769 0)
(1.0005967301092 -0.01300614247678 0)
(1.0007293064578 -0.014384554887562 0)
(1.0008799768354 -0.015785405913936 0)
(1.0010501313478 -0.017210199430636 0)
(1.0012441291007 -0.018661519899066 0)
(1.0014624143732 -0.020135372082116 0)
(1.0017116336356 -0.021634458976624 0)
(1.0019894260933 -0.023152032284172 0)
(1.0023076005709 -0.024700931661321 0)
(1.0026577034152 -0.026270711393868 0)
(1.0030635151011 -0.027891866620275 0)
(1.0035019666201 -0.029533149965344 0)
(1.0040229166427 -0.031255597461063 0)
(1.0045675651837 -0.032972559930303 0)
(1.0052431013965 -0.034819226086269 0)
(1.0059071649554 -0.036582899053064 0)
(1.0067954053953 -0.0385852260168 0)
(1.0075758013672 -0.040316788679526 0)
(1.008777383122 -0.042557062697737 0)
(1.0096414695826 -0.044078115280206 0)
(1.0114021814525 -0.046764131503872 0)
(1.0000000402778 -0.00068309604565625 0)
(1.0000076743077 -0.0020772003812865 0)
(1.0000254527614 -0.0035044601359726 0)
(1.0000550088281 -0.0049334743958152 0)
(1.0000953414394 -0.0063359735956443 0)
(1.000144314884 -0.0077068521208319 0)
(1.0002003481384 -0.0090592428102562 0)
(1.0002634908331 -0.010410020052997 0)
(1.0003345131019 -0.011770596009715 0)
(1.000415256717 -0.013147832341215 0)
(1.0005071396097 -0.014545760964687 0)
(1.0006130668552 -0.015969246476426 0)
(1.000734564129 -0.017420238714893 0)
(1.0008760364561 -0.01890156167945 0)
(1.0010381718967 -0.020409487587804 0)
(1.0012276473503 -0.021946820126529 0)
(1.0014425380636 -0.023507337653339 0)
(1.0016946014345 -0.025104354193462 0)
(1.0019762097538 -0.026728623007749 0)
(1.0023108434524 -0.028411376767264 0)
(1.0026770897058 -0.030123004200013 0)
(1.0031237945843 -0.031924820546203 0)
(1.003595573495 -0.033732225465317 0)
(1.0041966613966 -0.035679348340871 0)
(1.0047918838383 -0.037557042187468 0)
(1.0056089420504 -0.039682628325962 0)
(1.0063312974293 -0.041554626400011 0)
(1.0074688272582 -0.04394111586623 0)
(1.0082982486453 -0.045631632222652 0)
(1.0100156682367 -0.048486447804434 0)
(0.9999999420085 -0.00068621829559402 0)
(1.0000031746573 -0.0020891236200512 0)
(1.000012582153 -0.0035278793524449 0)
(1.0000296567395 -0.00496840011161 0)
(1.0000533085838 -0.0063803111317673 0)
(1.000081315771 -0.0077583409843266 0)
(1.0001120195998 -0.0091169152167385 0)
(1.0001454001455 -0.01047440678471 0)
(1.0001822481036 -0.011843285190134 0)
(1.0002243861955 -0.013230985641299 0)
(1.000273288586 -0.014642011751233 0)
(1.0003318063404 -0.016081605623143 0)
(1.0004015862124 -0.01755217394944 0)
(1.0004869477734 -0.019056754016617 0)
(1.0005888645056 -0.02059193887616 0)
(1.0007138780823 -0.022160624988894 0)
(1.000860625823 -0.023757170399344 0)
(1.0010405553643 -0.025395410734965 0)
(1.0012470604522 -0.02706724422175 0)
(1.0015029488108 -0.028804965495764 0)
(1.0017886885976 -0.030580085411751 0)
(1.0021517448065 -0.032455455227552 0)
(1.0025402487606 -0.034346524135241 0)
(1.0030554871268 -0.036390236735308 0)
(1.0035691812712 -0.038375240496025 0)
(1.0043021174757 -0.040624137205057 0)
(1.0049520686197 -0.04263031128915 0)
(1.0060109947917 -0.045166647423582 0)
(1.0067892201571 -0.047022399425613 0)
(1.0084461351081 -0.050040099901588 0)
(0.9999998351841 -0.00068668687526902 0)
(0.99999862856276 -0.0020928984805255 0)
(0.99999943653357 -0.0035374034708365 0)
(1.0000035895738 -0.0049835968532667 0)
(1.0000099573456 -0.0063991203136772 0)
(1.0000162759067 -0.0077784461712813 0)
(1.0000207878024 -0.0091372760155004 0)
(1.0000233458664 -0.010495452336905 0)
(1.0000247538305 -0.011866488789205 0)
(1.000026755739 -0.013258367236029 0)
(1.0000309030949 -0.014676072346582 0)
(1.0000398950029 -0.016125178915549 0)
(1.0000555613612 -0.017608619183103 0)
(1.000081914065 -0.019129605794953 0)
(1.0001204040682 -0.020685210270829 0)
(1.000177029791 -0.022278270739314 0)
(1.0002514747937 -0.023903932929095 0)
(1.0003540358752 -0.025576235302356 0)
(1.0004801753328 -0.027288546083317 0)
(1.0006503472457 -0.029073927081367 0)
(1.0008490401255 -0.030905217485272 0)
(1.0011192142965 -0.032847353572844 0)
(1.0014164235191 -0.034814140113626 0)
(1.0018336875443 -0.036950121217392 0)
(1.002255919884 -0.0390318423963 0)
(1.0028894369489 -0.041407751452855 0)
(1.0034564470302 -0.043530028612194 0)
(1.0044210076111 -0.046242036269155 0)
(1.0051426038022 -0.048223332643343 0)
(1.0067106338821 -0.051454085075149 0)
(0.99999972108319 -0.00068507895412142 0)
(0.99999431266692 -0.0020902642921985 0)
(0.99998655212029 -0.0035355811077374 0)
(0.99997748526827 -0.0049823115525665 0)
(0.99996620382919 -0.0063965160920306 0)
(0.99995047027129 -0.0077719507811877 0)
(0.9999282878552 -0.0091257046117154 0)
(0.99989935050917 -0.010479095915324 0)
(0.99986448240599 -0.011846656747381 0)
(0.99982530186239 -0.013236911762165 0)
(0.99978345585251 -0.014655358373422 0)
(0.99974135893444 -0.016107818349627 0)
(0.99970106793895 -0.017597823992607 0)
(0.99966603983082 -0.019128767956851 0)
(0.99963852480631 -0.020698567057312 0)
(0.99962348966452 -0.022309904271031 0)
(0.99962248497254 -0.023959336148333 0)
(0.99964328714036 -0.025660448326321 0)
(0.99968542260295 -0.027409291372122 0)
(0.99976351041415 -0.029238037702162 0)
(0.99987119428469 -0.031123450231094 0)
(1.0000386188806 -0.033129472894381 0)
(1.0002413857519 -0.035172321460726 0)
(1.0005446891981 -0.037401466323545 0)
(1.0008756839024 -0.039579882612831 0)
(1.0013813727732 -0.042097856754811 0)
(1.0018739307601 -0.044316862210567 0)
(1.0026961432422 -0.047284152732349 0)
(1.0033998065418 -0.049281984359788 0)
(1.004824744373 -0.053059594159141 0)
(0.99999954677789 -0.00068264524902084 0)
(0.99998992492251 -0.0020851998069643 0)
(0.99997372904044 -0.00353043066091 0)
(0.99995098315319 -0.0049772924732851 0)
(0.99992177160408 -0.0063903259044949 0)
(0.9998840357881 -0.0077617806377458 0)
(0.99983496792591 -0.0091101577383967 0)
(0.99977423533837 -0.010458534714724 0)
(0.99970267415937 -0.011822711525803 0)
(0.999621711706 -0.013211702674488 0)
(0.99953311811318 -0.014631591391219 0)
(0.99943904092531 -0.016088458771708 0)
(0.9993416216337 -0.017586528326786 0)
(0.99924358971996 -0.019129356255378 0)
(0.99914791440686 -0.020715959053895 0)
(0.99905843435481 -0.022348730592068 0)
(0.99897877155685 -0.024026587460414 0)
(0.99891383630655 -0.025762150906762 0)