/*--------------------------------*- C++ -*----------------------------------*\
| =========                 |                                                 |
| \\      /  F ield         | OpenFOAM: The Open Source CFD Toolbox           |
|  \\    /   O peration     | Version:  2112                                  |
|   \\  /    A nd           | Website:  www.openfoam.com                      |
|    \\/     M anipulation  |                                                 |
\*---------------------------------------------------------------------------*/
FoamFile
{
    version     2.0;
    format      ascii;
    arch        "LSB;label=32;scalar=64";
    class       volScalarField;
    location    "19";
    object      p;
}
// * * * * * * * * * * * * * * * * * * * * * * * * * * * * * * * * * * * * * //

dimensions      [0 2 -2 0 0 0 0];

internalField   nonuniform List<scalar> 
22000
(
0.011204705864879
0.011182466222546
0.011136538516457
0.011065778896587
0.010969663502331
0.010848265889052
0.010701910723576
0.010530933650007
0.010335612944115
0.010116188218534
0.0098728970934384
0.009606007316362
0.0093158273481806
0.0090027103422595
0.0086670416994026
0.0083092443765157
0.0079297634438975
0.0075290898264669
0.0071077286942859
0.0066662502538528
0.0062052152424353
0.0057252865580646
0.0052270623582673
0.0047113269014682
0.0041786760331026
0.0036300770425001
0.0030660289199787
0.0024878185474973
0.0018956219098365
0.0012912958002495
0.011621534675144
0.011597979621308
0.011550325069877
0.011477532376129
0.011379036365329
0.011254838868704
0.011105212959791
0.010930468673128
0.010730873788267
0.010506661850715
0.010258062315494
0.0099853330742691
0.0096887706933027
0.0093687181718641
0.0090255496167989
0.0086596812179635
0.0082715476519775
0.0078616375928248
0.0074304446506451
0.006978544084985
0.0065064805485125
0.006014936008086
0.0055044811540388
0.0049759441281298
0.0044298621939333
0.0038672917424551
0.0032885890709606
0.0026952131086694
0.0020869732343501
0.0014659668512398
0.012387654192685
0.012363048900247
0.012313364096882
0.0122376207049
0.01213529537018
0.01200639249454
0.011851163927026
0.011669893379433
0.01146282556532
0.011230175760534
0.010972156142178
0.010689007957276
0.010381008566333
0.010048483659988
0.0096917867595281
0.0093113198144023
0.0089074968263385
0.0084807997313592
0.0080316998171948
0.0075607796293635
0.0070685545784981
0.0065557405794214
0.006022859019748
0.0054708227185205
0.0049000671880672
0.0043118380361082
0.0037062482811721
0.003085161259696
0.0024477383823329
0.0017967042413424
0.013456322748935
0.013430522891716
0.01337843101668
0.01329903868338
0.013191818938237
0.013056778720286
0.012894162677699
0.012704234773405
0.012487212012472
0.012243280886348
0.011972624056691
0.01167545461313
0.01135201877265
0.011002613675092
0.010627559067006
0.010227231243141
0.0098020087904259
0.0093523574729192
0.0088787101934979
0.0083816528204706
0.0078616522986816
0.0073194650932025
0.0067555356330784
0.0061708887552006
0.0055658069661511
0.0049417909891856
0.0042985893369785
0.0036386056035203
0.0029600312466157
0.0022664152190502
0.014787604238912
0.014760436337064
0.014705577320881
0.014621971097115
0.014509070162031
0.014366872694244
0.01419560909071
0.0139955165661
0.013766774512864
0.013509527831033
0.013223914405465
0.012910103021507
0.012568291232759
0.012198730332275
0.011801687027248
0.011377494136416
0.010926473693345
0.01044905864182
0.0099456203304992
0.0094167354611101
0.0088627956522764
0.0082845945691358
0.0076824636418033
0.0070575549068695
0.0064099403000353
0.0057414292096905
0.0050512898977548
0.0043426061872916
0.0036123302671518
0.0028650847134663
0.016346543903099
0.016317909255574
0.016260080662805
0.016171949578583
0.016052941606329
0.015903036124373
0.015722436521903
0.015511338955402
0.015269869521342
0.014998114588443
0.014696148356836
0.014364074906331
0.014002020560245
0.013610167614388
0.013188704281557
0.012737895281126
0.012257978073443
0.011749328345104
0.011212225181553
0.010647214819244
0.010054578893847
0.009435135339292
0.0087890606332913
0.00811763883301
0.0074206706682978
0.0067003187119021
0.0059552604090936
0.0051893861531268
0.0043981479085121
0.0035874473022489
0.018101647054009
0.018071539958815
0.018010725860567
0.017918041105847
0.017792879102143
0.01763518984224
0.017445135021244
0.01722285256365
0.016968396387155
0.016681774073445
0.016362973765595
0.016012010476458
0.015628912217507
0.015213763821852
0.014766643763248
0.01428771740561
0.01377710274321
0.013235085806687
0.012661814914442
0.012057775083037
0.011423095124354
0.010758593138091
0.010064240002722
0.00934144413326
0.0085896683118002
0.0078114548480518
0.0070047744841898
0.0061744237362196
0.0053140896692493
0.0044311059880373
0.02002370455725
0.019992211443747
0.019928581638478
0.019831594958626
0.019700606807915
0.019535525900277
0.01933645625078
0.019103459188269
0.018836496043773
0.018535473114913
0.018200267218423
0.017830776386441
0.017426899215537
0.016988589836816
0.016515780464606
0.016008499534664
0.015466703993689
0.014890549718223
0.014280007687654
0.013635460893077
0.012956833144462
0.01224490629731
0.011499385908814
0.010721780626788
0.0099111386847921
0.0090703891652101
0.0081966750415039
0.0072957703326037
0.0063593348819394
0.0053962367807376
0.02208505832739
0.022052353936875
0.021986257108635
0.021885490904416
0.021749365943888
0.021577736455731
0.021370632429697
0.021128020215515
0.020849747603104
0.020535595711402
0.0201853027918
0.019798619471144
0.019375280908981
0.018915073561947
0.018417742569857
0.017883136397674
0.017311003462936
0.016701321471709
0.01605382992078
0.015368758849739
0.014645765881624
0.013885546813716
0.013087471404968
0.012253108168246
0.01138100582833
0.010474464033522
0.0095296714776728
0.0085534200811061
0.0075350803877757
0.0064850933241895
0.024259220717969
0.02422556150926
0.024157513129685
0.024053741051543
0.02391350365385
0.023736587848846
0.023522934261063
0.023272396646239
0.022984688406454
0.022659441167664
0.022296226802385
0.02189461720752
0.021454148811993
0.020974401264409
0.020454889076639
0.019895233689995
0.019294923057633
0.018653702369738
0.017971019089752
0.017246890131857
0.01648063722009
0.015672807396905
0.014822355071549
0.013930849433807
0.012996244370951
0.01202217021739
0.011003729390812
0.009948734116619
0.0088440042379727
0.0077015158565596
0.026520751528394
0.026486463184839
0.026417124592482
0.026311340601844
0.02616831032545
0.025987743054794
0.025769476607677
0.025513235300304
0.025218578069728
0.02488496387575
0.024511771690388
0.024098364229342
0.023644044403272
0.023148145665863
0.022609907687202
0.02202867590619
0.021403623502604
0.02073420438848
0.020019508918448
0.019259272819389
0.018452405486826
0.017599229944353
0.016698196204659
0.015750797371596
0.014754288833617
0.013712563297242
0.012619498664629
0.011483888217336
0.010289738555283
0.0090504348067234
0.028845318418082
0.028810784451915
0.028740929509515
0.028634301784774
0.028490040075658
0.028307768152147
0.028087208023448
0.027827938414559
0.027529345640895
0.027190695668955
0.026811151224339
0.026389838209063
0.025925793783703
0.025418067692153
0.024865582196858
0.024267358269526
0.02362220022584
0.02292920997643
0.022187053672889
0.021395112186317
0.020551801402305
0.019657134390146
0.018708961302826
0.017708603510372
0.016652505370188
0.015544726667557
0.014377777949467
0.013161346305727
0.011876365044445
0.010537403481844
0.031209837381689
0.031175484142748
0.031105970894671
0.030999800417694
0.030856053732791
0.030674262754241
0.030454022961237
0.030194755323798
0.029895660178713
0.02955579440604
0.029174084908969
0.028749397253676
0.028280475223334
0.027766051640541
0.027204693033975
0.026595050589197
0.025935508724106
0.025224757622087
0.024460973286525
0.02364310525546
0.022768993350978
0.021838246163774
0.020848013665634
0.019799334013323
0.018687722927387
0.017517281734336
0.016279007813469
0.014983346038006
0.013607899779319
0.012168087735869
0.033592655789514
0.03355893681034
0.033490679753278
0.033386356422205
0.033244995677384
0.033066033961662
0.032848932662429
0.03259294679969
0.0322970824173
0.031960177561452
0.031580910957541
0.031157870514687
0.03068948485051
0.030174142819309
0.029610023600402
0.028995369233862
0.028328099341195
0.027606436760498
0.026828006078349
0.025991249708393
0.025093351165772
0.024133414937447
0.023107790769305
0.022017107095243
0.020855830174815
0.01962795046947
0.018322806523225
0.016951410685422
0.015487792024499
0.01394776890622
0.035973769210336
0.035941149711759
0.03587508872426
0.035774044129522
0.035637000456131
0.035463298246094
0.035252261497461
0.035002976142847
0.034714251441699
0.034384703065998
0.034012756086299
0.033596711904592
0.033134671591797
0.032624661072079
0.032064449052758
0.031451837405418
0.030784245203259
0.030059379628453
0.029274261090139
0.028426753188837
0.027513310122911
0.02653243074078
0.025479569435049
0.024354808017229
0.023151447071552
0.021873185573388
0.020507561489559
0.01906590869538
0.017518450905475
0.015880832276227
0.038335016109065
0.038303958147967
0.038241027763704
0.038144687958293
0.038013889530117
0.03784787984884
0.037645846324788
0.037406708124449
0.037129081669585
0.036811363807662
0.03645172823408
0.036048189114623
0.03559851696888
0.035100367043923
0.034551085884997
0.033948014315152
0.033288046765675
0.032568336488254
0.031785259413593
0.030936035993578
0.030016330739329
0.029023936267283
0.027953329486118
0.026803898471131
0.025567675314152
0.024247864848717
0.022830085025017
0.021325671639021
0.019700859749878
0.017970350702472
0.040660229325401
0.040631177056538
0.040572277836408
0.040482020730455
0.040359334815502
0.040203379861184
0.040013211788386
0.03978759060999
0.039524950214285
0.039223479483631
0.03888111122548
0.038495580682294
0.038064334700938
0.037584660471567
0.03705348341919
0.036467675907567
0.035823597454757
0.035117821267907
0.034346054454797
0.03350481993722
0.032588951316894
0.031595436957985
0.030517717441143
0.029354325760584
0.028095955205695
0.026745070220076
0.025285315860062
0.023727637723011
0.022034174526479
0.020217755315852
0.042935332807001
0.042908700318941
0.042854673435569
0.042771789909118
0.042658971368314
0.042515297971863
0.042339702688892
0.042130798948158
0.041886854144262
0.041605866477455
0.041285545963452
0.040923366499271
0.040516468704723
0.040061785832225
0.039555835413638
0.038995027326099
0.038375192325676
0.037692312068718
0.036941418435805
0.036118294695037
0.035216926064038
0.034233402963452
0.033160107639279
0.031994539885116
0.030726036858142
0.029356002654287
0.027866188952449
0.026266489957082
0.024515524204287
0.022622519859453
0.045148379185509
0.045124540667448
0.045076147778226
0.04500181049849
0.044900458123917
0.044771101962472
0.044612564435234
0.044423329425665
0.044201519225313
0.043944964479653
0.043651176701102
0.043317393494242
0.04294047595148
0.042517029215069
0.04204318902749
0.041514923368092
0.040927554947621
0.040276481339288
0.039556069985555
0.038761342720675
0.03788543427557
0.036923464070891
0.03586675279792
0.034711600861908
0.033446040669408
0.032069993016113
0.030563611386764
0.028934603215794
0.027139223711731
0.025180951065387
0.047289524084244
0.047268811601267
0.047226724758694
0.047161966834512
0.047073491112879
0.046960254104225
0.046820983510548
0.046654053911657
0.046457467857832
0.046228917453203
0.045965747789683
0.045664992893907
0.045323268226528
0.044936885306906
0.044501634967311
0.044013078593794
0.043466064848763
0.042855436477171
0.042174920007829
0.04141879232363
0.040579333473354
0.039650679061733
0.038623037879331
0.037491452240648
0.0362425848497
0.034874757964019
0.033366438244462
0.031722732179308
0.029897055238182
0.027885745461271
0.04935093595078
0.04933364399514
0.04929844936891
0.049244160907149
0.049169772240809
0.049074202148962
0.048956102653933
0.048813762152327
0.04864508989052
0.048447669576256
0.048218718249519
0.04795510796912
0.047653253431873
0.04730921606163
0.046918490348669
0.046476276795074
0.045976998395978
0.045414987723923
0.044783370188809
0.044075725970094
0.043283490745597
0.042399875260959
0.041413882460717
0.040319377270551
0.039101321222534
0.037756732844686
0.036261846873303
0.034620074011571
0.032780271761905
0.030730937633102
0.051326652500447
0.051313031439829
0.051285231389894
0.051242160742684
0.051182878603978
0.051106283256898
0.051010960390352
0.050895137833266
0.050756662645139
0.050593040425104
0.050401399931982
0.050178492023407
0.049920581210511
0.049623526824438
0.049282592646152
0.048892669289023
0.048447831628928
0.047941945414682
0.047367620381231
0.046717769201204
0.045983069775008
0.045155849524896
0.044223937974896
0.043180142175845
0.042007318955421
0.040701583383543
0.039235236928513
0.03761304140829
0.035775187420422
0.033709822221151
0.053212475851444
0.053202640858132
0.053182556536812
0.053151243548549
0.053107860742354
0.053051300673229
0.052980064796819
0.052892329913922
0.052785911849557
0.052658276720459
0.052506510476496
0.052327282645666
0.052116757852366
0.051870631567561
0.051584001933174
0.051251477776807
0.050866885052684
0.050423631009213
0.049913978079178
0.049330102955129
0.048662213141145
0.047901511287369
0.047035188946041
0.046054545344101
0.044941163544977
0.043689447907714
0.04226697217518
0.04067925972704
0.038852035327115
0.036792837004959
0.055006121425555
0.054999944337497
0.054987382282109
0.054967847609601
0.054940669657844
0.054904707177948
0.054858391768546
0.054799800086086
0.054726689213914
0.054636538803314
0.0545264436477
0.054393022226175
0.05423239311846
0.054040139438844
0.053811267474161
0.053540115512898
0.053220340315714
0.052844820423773
0.052405646696697
0.051894015331571
0.051300165892172
0.050613416367903
0.049821731155335
0.048912682037542
0.047870827464759
0.046682909343559
0.045322922922005
0.04377659782297
0.041970624947459
0.039882439152653
0.056707632581402
0.056705289862461
0.056699644555732
0.056691255461602
0.05667980190757
0.056663955055635
0.056642397626334
0.056613133784123
0.056573737489349
0.056521705064874
0.056454197553177
0.056367817753819
0.056258682816518
0.056122339624886
0.055953802158428
0.055747273827191
0.05549639957794
0.05519362689277
0.05483099885319
0.054398615585428
0.053886985268775
0.053282973335491
0.052576373387471
0.051748890654714
0.050792227662899
0.049678119382601
0.048404305050875
0.046916532208535
0.045190174504256
0.042995399644604
0.00071247565106547
0.00016174637077259
-0.00039770382785135
-0.00096472812728253
-0.0015382921639442
-0.0021175400418655
-0.0027017182798028
-0.0032901078693401
-0.0038819808773992
-0.0044765757376345
-0.0050730970593324
-0.0056707320555056
-0.0062686652354611
-0.0068660841412913
-0.0074621805737776
-0.0080561515537675
-0.0086471997050352
-0.0092345344395742
-0.0098173739593985
-0.010394946982886
-0.01096649354322
-0.011531263441345
-0.012088509875276
-0.012637480707805
-0.013177416335499
-0.013707771629274
-0.014228093860084
-0.014737784670794
-0.01523620318054
-0.015722743407076
-0.016196862574167
-0.016658074376537
-0.017105934103442
-0.017540026748368
-0.017959968739096
-0.018365404389633
-0.018756015192264
-0.019131508561598
-0.019491636033198
-0.019836165331127
-0.020164922215825
-0.020477725627083
-0.020774484824133
-0.021055052065006
-0.021319445716265
-0.021567515371872
-0.021799457854566
-0.022015051059941
-0.022214886969754
-0.022398632155909
0.00087428175950111
0.00031438202592894
-0.0002554425884682
-0.00083302994975157
-0.0014169209802077
-0.0020063192017309
-0.0026006936864882
-0.0031995321641624
-0.0038022276171316
-0.0044080507795843
-0.0050161926275411
-0.0056258221088216
-0.0062361142125857
-0.0068462501609215
-0.0074554099466843
-0.0080627686220332
-0.008667497135186
-0.0092687649311412
-0.0098657434341584
-0.010457610251407
-0.011043554925983
-0.011622787536993
-0.012194554634504
-0.012758160849648
-0.013312986000107
-0.013858207559634
-0.014392939290231
-0.014916510910725
-0.01542835258092
-0.015927919822128
-0.016414674828822
-0.016888093451456
-0.01734768365494
-0.017792988268252
-0.018223594234794
-0.018639120893472
-0.0190392372094
-0.019423635307398
-0.019792070412107
-0.020144299395801
-0.020480172533456
-0.02079949354656
-0.021102228421619
-0.021388187262625
-0.021657498287562
-0.021909884089788
-0.022145729926166
-0.022364414204101
-0.022566693336303
-0.022750723536855
0.0011788818078996
0.00059523852824385
-1.1496490993577e-06
-0.00060576204021107
-0.0012160020135026
-0.0018310237449999
-0.0024506418212148
-0.0030746736233222
-0.0037026729757234
-0.0043339036082328
-0.0049674722196464
-0.0056024716696302
-0.00623803508983
-0.006873321739385
-0.0075074917276365
-0.008139694898334
-0.0087690715352271
-0.009394757542825
-0.01001589074068
-0.010631616933722
-0.011241095101728
-0.011843499726425
-0.012438018323376
-0.013023842263885
-0.013600152093566
-0.01416619146503
-0.014721268418952
-0.015264707901622
-0.015795871929755
-0.016314156482374
-0.016818990853751
-0.01730983590639
-0.017786195565299
-0.018247610604195
-0.01869367536658
-0.019124014980325
-0.019538319629658
-0.019936291409621
-0.020317723697233
-0.020682379091663
-0.021030171445533
-0.021360888893573
-0.021674607879993
-0.021971062794373
-0.022250585032231
-0.022512661593736
-0.02275804805917
-0.022985409411662
-0.023195930897634
-0.023385076843941
0.0016099420393396
0.0009890351125514
0.00035147410759266
-0.00029442149711059
-0.00094433773665322
-0.0015974443254579
-0.00225415003763
-0.0029147955341348
-0.0035791777491047
-0.0042465517103993
-0.0049159119144884
-0.0055862623507197
-0.0062567044984482
-0.0069263982837126
-0.0075945081565686
-0.0082601799160571
-0.0089225412967545
-0.0095807098365038
-0.010233801453998
-0.010880937545144
-0.011521250269949
-0.012153885433723
-0.01277800565144
-0.013392796086619
-0.013997476009474
-0.014591291449168
-0.015173511964628
-0.0157434439382
-0.016300430630396
-0.016843851714752
-0.01737313128329
-0.017887731990889
-0.018387167778045
-0.018870987688801
-0.019338803430993
-0.019790249411571
-0.020225043872548
-0.020642896061655
-0.021043645204698
-0.021427048663402
-0.021793098680259
-0.022141541684467
-0.0224725972619
-0.022785865440544
-0.023081953902366
-0.023359973549907
-0.023621188414135
-0.023863138910872
-0.024087511126014
-0.024285470229493
0.0021592111235333
0.0014892252668934
0.00079746107802655
9.7532777754004e-05
-0.00060396019821227
-0.0013063172267576
-0.0020108262434431
-0.0027185492953457
-0.0034295949329812
-0.0041431921950791
-0.0048581835998625
-0.0055734635911636
-0.006288105424223
-0.0070012830667808
-0.0077121776014719
-0.0084199392459107
-0.0091236887412959
-0.0098225302641681
-0.010515564206579
-0.011201896914841
-0.011880647895121
-0.012550953587586
-0.013211970123879
-0.013862875635078
-0.014502873406971
-0.015131194688646
-0.015747102057316
-0.016349892938172
-0.016938907095016
-0.017513524171104
-0.018073173599875
-0.018617323918673
-0.019145502697489
-0.019657269400306
-0.02015225905129
-0.020630118087792
-0.021090601948739
-0.021533427664625
-0.021958494649709
-0.022365550347193
-0.022754689671244
-0.023125599256727
-0.02347868630278
-0.023813365585943
-0.02413060638571
-0.024429011452668
-0.024710513117585
-0.024971164436916
-0.02521335083033
-0.025422617777319
0.0028226174820477
0.0020925893632808
0.0013342020409554
0.00056804702395578
-0.00019637073392491
-0.00095861996081105
-0.0017211807306998
-0.0024860359521578
-0.0032536570001694
-0.0040232102408289
-0.0047933342273174
-0.0055627868822281
-0.0063306124099578
-0.0070960087589261
-0.007858182191882
-0.0086162913528966
-0.0093694518907207
-0.010116756442753
-0.01085729257415
-0.011590155346555
-0.012314455285186
-0.013029321120189
-0.0137339011494
-0.0144273644552
-0.015108905372354
-0.015777752164087
-0.016433168872808
-0.017074455749869
-0.017700958856134
-0.018312065347608
-0.018907218217877
-0.0194858993739
-0.020047659468527
-0.020592076483569
-0.021118821155537
-0.021627560250278
-0.022118102728373
-0.022590180185374
-0.023043774594243
-0.023478624408461
-0.023894960620535
-0.02429239749226
-0.02467158598248
-0.025031711829972
-0.025374208339808
-0.025697051269425
-0.026003026177218
-0.026286354181441
-0.026550331276857
-0.026773524709571
0.0035986588847625
0.0027980824841645
0.0019608954116186
0.0011165966974622
0.00027826663669657
-0.000554127118761
-0.0013846245681469
-0.0022163432464284
-0.0030501558312292
-0.0038851133146327
-0.0047195893891213
-0.0055521776008851
-0.0063818951524753
-0.0072079749489269
-0.0080296557290367
-0.0088461067994629
-0.0096564381211694
-0.010459730148097
-0.011255058126746
-0.012041507015793
-0.012818179979324
-0.013584200251268
-0.014338711854404
-0.015080880723192
-0.015809900732441
-0.016525002345046
-0.017225454542541
-0.017910564944074
-0.018579692101474
-0.019232237092582
-0.019867664241806
-0.020485475910931
-0.021085255774023
-0.021666607984278
-0.022229251740507
-0.022772881958826
-0.023297378458819
-0.023802492996397
-0.02428831473214
-0.024754573040394
-0.025201673312363
-0.02562914364858
-0.026037943484943
-0.026426984576472
-0.02679827940207
-0.027149055944233
-0.027483150899996
-0.027792602923001
-0.028081833769405
-0.02832103975924
0.0044883677877214
0.0036070130599773
0.0026788685234003
0.0017445813031549
0.00082153395828543
-9.1035710299643e-05
-0.00099916388022959
-0.0019073347916011
-0.0028168452718021
-0.0037265580836614
-0.0046345124130743
-0.0055391096017827
-0.0064393432645014
-0.0073344928692242
-0.008223835506297
-0.0091065497737844
-0.0099817359983398
-0.010848458874359
-0.011705779005568
-0.012552770494853
-0.013388529452197
-0.014212174436215
-0.015022846466988
-0.015819709693708
-0.016601958607047
-0.017368827515258
-0.018119592906617
-0.018853572373718
-0.01957014077541
-0.020268717016003
-0.020948793268815
-0.021609898090603
-0.022251657403468
-0.022873708361913
-0.023475832095306
-0.024057758511652
-0.02461945761213
-0.025160707017011
-0.025681732344905
-0.026182254237065
-0.026662898626204
-0.027123093961849
-0.027564184740823
-0.027984762692585
-0.028387550296307
-0.028768906008009
-0.02913393575383
-0.029472156181746
-0.029789374768629
-0.030046099390763
0.0054948550236109
0.004522613688041
0.0034911773002099
0.0024549515740391
0.0014364103562965
0.0004337056227804
-0.0005617124530159
-0.0015559436276482
-0.0025507086779174
-0.0035445850237999
-0.0045351969872221
-0.0055207266042941
-0.0065001517245237
-0.0074728101808973
-0.0084380197612187
-0.0093949631797671
-0.01034272319527
-0.01128034195782
-0.012206861063026
-0.01312134072044
-0.014022867538924
-0.014910553147152
-0.015783533334349
-0.016640968158803
-0.017482050818005
-0.018306019036164
-0.019112157559087
-0.019899794775322
-0.020668324362437
-0.021417185214456
-0.022145901886521
-0.02285403264811
-0.023541254621924
-0.024207243213257
-0.02485185535035
-0.025474862088673
-0.026076345576642
-0.026656114232453
-0.027214564325551
-0.027751407570201
-0.028267544625948
-0.028762289940639
-0.029237461487078
-0.029691284765607
-0.030127339987743
-0.030540998532422
-0.030938877565304
-0.031307653959853
-0.031654816860101
-0.031929930689526
0.0066228613812192
0.0055496299555191
0.0044022451554711
0.003251908690153
0.0021270286028584
0.0010242032643155
-6.823716200969e-05
-0.0011582690246257
-0.002248006116284
-0.0033356143311517
-0.0044182145463361
-0.0054937466530411
-0.0065611839631625
-0.0076199348137371
-0.0086693573084115
-0.0097086280083326
-0.010736800140677
-0.011752883506504
-0.012755893126209
-0.01374486947412
-0.014718884449865
-0.015677037408624
-0.016618453793062
-0.017542284765784
-0.018447718090716
-0.019333991370167
-0.020200394489873
-0.021046263854655
-0.021871012028727
-0.022674097565825
-0.023455080373391
-0.024213548676876
-0.024949237225208
-0.025661861827852
-0.026351369180804
-0.027017574283633
-0.027660694849204
-0.028280572362541
-0.028877812266067
-0.029452114442166
-0.030004716324076
-0.030534801824658
-0.031044762995654
-0.031532411957648
-0.032002350325098
-0.032448851791046
-0.032880304990351
-0.033280260134911
-0.033658225063374
-0.033951699869523
0.0078783036797876
0.0066939228154191
0.0054175350848593
0.0041406473481313
0.002898481947933
0.0016854771117291
0.0004861396317031
-0.00070964599069704
-0.0019043122425777
-0.0030954553187234
-0.0042795971538996
-0.0054544193873734
-0.0066189093285474
-0.007772557125193
-0.0089147547608413
-0.010044657112252
-0.011161271325307
-0.012263561526073
-0.013350506411898
-0.014421118106823
-0.015474445018232
-0.016509565051762
-0.01752558425238
-0.01852163612493
-0.019496895529572
-0.020450594512629
-0.021382023450822
-0.022290519566944
-0.02317550795733
-0.02403646025274
-0.024872971635969
-0.025684657802238
-0.026471316538933
-0.027232700810932
-0.027968858818499
-0.02867964767756
-0.029365445561614
-0.030026123942857
-0.030662540082326
-0.031274374088098
-0.031863270010116
-0.032428260020889
-0.032972421684302
-0.03349310674675
-0.033996114906869
-0.034474525574234
-0.034938772391903
-0.035369051734312
-0.03577726436047
-0.036087952599341
0.0092678438253619
0.0079620739773101
0.0065432106692292
0.0051270783559816
0.0037565951440097
0.0024232647416397
0.0011069725366127
-0.000204783288396
-0.0015146233804085
-0.0028193808597447
-0.0041148827108245
-0.005398548891403
-0.0066694042280528
-0.0079270293686202
-0.0091708376996406
-0.010399939391082
-0.011613274136729
-0.012809744146523
-0.013988278545053
-0.015147849043001
-0.016287468267191
-0.017406179647816
-0.018503056714968
-0.019577202233673
-0.020627765362076
-0.021653960154439
-0.022655068476594
-0.023630422141336
-0.024579451830916
-0.025501627208927
-0.026396569950746
-0.027263914266126
-0.028103523638809
-0.028915179787702
-0.029699042077758
-0.030454999667262
-0.031183615428435
-0.031884780596193
-0.03255965043078
-0.033207870146809
-0.033831567775721
-0.034429596706381
-0.035005841967521
-0.035557145568556
-0.036090689217705
-0.03659827862892
-0.037092666560084
-0.037550553294196
-0.037986637579207
-0.038311955756884
0.010798398952663
0.0093609469575101
0.0077857662749072
0.0062175245164698
0.004707674785746
0.0032438145869028
0.0018003188138389
0.00036208974831099
-0.0010734773898053
-0.0025022227656988
-0.0039191862770041
-0.0053215386914657
-0.0067083748551067
-0.0080793699806711
-0.0094339356445532
-0.010771107034892
-0.012089730206216
-0.01338862561206
-0.014666656960552
-0.015922739546478
-0.017155832199403
-0.018364925461098
-0.019549042069599
-0.020707236555643
-0.021838616903693
-0.02294236500828
-0.024017739075803
-0.025064045249428
-0.026080703639231
-0.027067169210339
-0.028023081704943
-0.028948076133511
-0.029842074508465
-0.030704870358892
-0.031536738270322
-0.032337582113196
-0.033108169364365
-0.03384839114942
-0.034559745258625
-0.035241819430831
-0.035897306138001
-0.036524850919081
-0.037129275045446
-0.037706868424865
-0.038266381520484
-0.038798290297277
-0.039317926864417
-0.03979845290197
-0.040257783887488
-0.04059337688587
0.01247665285794
0.010897231555205
0.0091516427890514
0.0074184095390876
0.0057582388797002
0.0041536307883983
0.0025725026984548
0.00099702408242675
-0.00057510866878793
-0.0021384862441081
-0.0036872852729947
-0.0052184593502547
-0.0067312069954551
-0.0082252925380307
-0.0097000923868663
-0.011154527437699
-0.012587319689863
-0.013997186158197
-0.015382905697633
-0.016743316516089
-0.018077300264549
-0.019383768644353
-0.020661667961718
-0.0219099843229
-0.023127757288833
-0.024314115810822
-0.025468292615833
-0.026589543683392
-0.02767723683868
-0.0287307861381
-0.029749839949789
-0.030734018213506
-0.031683281346684
-0.032597410791371
-0.033476787671282
-0.034321309228777
-0.035131951125837
-0.035908581184484
-0.036653066391729
-0.037364914335155
-0.038047443827956
-0.038699073806091
-0.039325671823646
-0.039922964384688
-0.040501437853243
-0.041050247734134
-0.041587541627884
-0.042083043914513
-0.042558312357933
-0.042897735154692
0.014308543484648
0.012576974432996
0.01064680749449
0.008735894294762
0.0069147307839403
0.005159254535604
0.0034299210519481
0.0017061570254752
-1.3630519372293e-05
-0.0017225035439074
-0.0034137374232901
-0.0050841316524581
-0.0067330247747276
-0.0083602478609113
-0.0099650899670222
-0.011546310535174
-0.013102473921399
-0.014632168810734
-0.016134068138749
-0.017606908090452
-0.019049466285369
-0.020460540678354
-0.021838956825772
-0.023183596469864
-0.024493416735204
-0.025767493093821
-0.027004997829711
-0.028205079514678
-0.02936702325486
-0.030490191106191
-0.031574207384385
-0.03261864766862
-0.033623473164759
-0.034588436878664
-0.035513988364072
-0.03640000909985
-0.037247645203765
-0.038056739939167
-0.038829498320769
-0.039565360998669
-0.040268258095939
-0.040936422868862
-0.041576776187058
-0.042184571846834
-0.042772070439014
-0.043327284320987
-0.043871287396056
-0.044370739026015
-0.04485129501902
-0.045185497020906
0.016298738616816
0.014405097364222
0.012276430429851
0.010175606696559
0.0081832070200749
0.0062669309676139
0.0043787593707821
0.0024955034777405
0.00061680198698722
-0.0012485807197029
-0.0030930175943789
-0.0049132499570099
-0.0067087918985615
-0.0084794985490169
-0.010224502151629
-0.011942343008196
-0.013631390625457
-0.015290079138069
-0.016916945938642
-0.018510597617675
-0.020069682939228
-0.021592856853609
-0.023078803317687
-0.024526157228752
-0.02593371091796
-0.027300649436534
-0.028626030359125
-0.029908756360519
-0.031147997936221
-0.032343068091386
-0.033493514532128
-0.034598837953953
-0.03565893630631
-0.03667353325963
-0.03764306139981
-0.03856741225667
-0.039447782272668
-0.040284063376019
-0.041078637197055
-0.041831014174179
-0.042545527514995
-0.043220458345298
-0.043863512889261
-0.044469872145198
-0.045053205014006
-0.045601036089864
-0.046136921764514
-0.046625500934975
-0.04709649463131
-0.047412873988411
0.018450413918578
0.016384886159206
0.014044184251395
0.011742105810104
0.0095691425254651
0.0074825138254536
0.0054248050256771
0.0033707222736863
0.0013218027893901
-0.00071113098227198
-0.0027196266479994
-0.0047004809236508
-0.0066534004469261
-0.008578195587393