/*--------------------------------*- C++ -*----------------------------------*\
| =========                 |                                                 |
| \\      /  F ield         | OpenFOAM: The Open Source CFD Toolbox           |
|  \\    /   O peration     | Version:  2112                                  |
|   \\  /    A nd           | Website:  www.openfoam.com                      |
|    \\/     M anipulation  |                                                 |
\*---------------------------------------------------------------------------*/
FoamFile
{
    version     2.0;
    format      ascii;
    arch        "LSB;label=32;scalar=64";
    class       surfaceScalarField;
    location    "19";
    object      phi;
}
// * * * * * * * * * * * * * * * * * * * * * * * * * * * * * * * * * * * * * //

dimensions      [0 3 -1 0 0 0 0];

oriented        oriented;

internalField   nonuniform List<scalar> 
43645
(
0.39512385527329
-4.9821834995488e-06
0.39513874039444
-1.4885090406614e-05
0.39516349775016
-2.4757322492697e-05
0.39519812118237
-3.4623397887304e-05
0.39524260615487
-4.4484938033951e-05
0.39529693227954
-5.4326090549903e-05
0.39536105499579
-6.4122682798078e-05
0.39543490954361
-7.3854515107783e-05
0.39551841526997
-8.3505694504768e-05
0.39561148454917
-9.3069248169476e-05
0.3957140223805
-0.00010253780118992
0.39582593551038
-0.00011191310056086
0.39594712182262
-0.00012118628379956
0.39607748454942
-0.00013036269913343
0.39621690503232
-0.00013942045604657
0.39636527729883
-0.00014837224035739
0.39652245094025
-0.00015717361597854
0.39668831697096
-0.00016586600586413
0.39686268044033
-0.0001743634451131
0.39704545695933
-0.00018277649518033
0.39723637653939
-0.00019091955668534
0.39743542943848
-0.00019905287601079
0.39764218574957
-0.00020675628830265
0.39785681719481
-0.00021463142258536
0.39807854583207
-0.00022172861475692
0.39830798367273
-0.00022943781816182
0.39854359672863
-0.00023561303341913
0.39878704152747
-0.00024344477654166
0.3990351128205
-0.00024807127111414
-0.00025672500875349
0.39929183785161
0.37294722118829
-9.6485838619407e-06
0.37296122569278
-2.8889544323871e-05
0.37298469379028
-4.8225368501112e-05
0.37301762086494
-6.7550421126679e-05
0.37305999912427
-8.6863146610437e-05
0.37311180571105
-0.00010613262750436
0.37317299628927
-0.00012531321226513
0.37324350934708
-0.00014436752525631
0.37332326991577
-0.00016326621670668
0.37341219748724
-0.00018199677426897
0.37351020510855
-0.00020054537831765
0.3736172080824
-0.00021891603133438
0.3737331135864
-0.00023709174587984
0.37385783426516
-0.0002550833370043
0.37399126138547
-0.00027284753654459
0.3741332980673
-0.00029040888328814
0.37428380375968
-0.00030767927037716
0.37444267786181
-0.00032474007076295
0.37460973665908
-0.00034142220590058
0.37478490442996
-0.00035794423011464
0.37496792660791
-0.00037394169924332
0.37515880184232
-0.00038992807536404
0.37535712272569
-0.00040507713697142
0.37556306500926
-0.00042057367160483
0.37577588637326
-0.00043454994436936
0.37599619041686
-0.0004497418273427
0.37622250876947
-0.00046193135163692
0.37645646148888
-0.00047739746186011
0.37669498092416
-0.00048659067337687
-0.00050376311342843
0.37694201906288
0.35201551025864
-1.4261267791894e-05
0.35202926654781
-4.2645780949848e-05
0.35205219168807
-7.1150456053888e-05
0.35208429771497
-9.9656395908864e-05
0.3521255819376
-0.00012814731819543
0.3521760146308
-0.00015656527083831
0.35223554266014
-0.00018484119305458
0.35230410081574
-0.00021292563359664
0.3523816165601
-0.00024078191517466
0.3524680161653
-0.0002683963348583
0.35256322150116
-0.00029575067096115
0.35266715806431
-0.00032285255250837
0.35277974364375
-0.0003496772846717
0.35290090244664
-0.00037624210039753
0.35303053641651
-0.00040248146810048
0.3531685599601
-0.00042843238954825
0.35331484128533
-0.00045396055927412
0.35346929095472
-0.00047918970455626
0.35363173262221
-0.0005038638385698
0.35380210529667
-0.00052831687024624
0.3539801610492
-0.00055199741794613
0.35416592109152
-0.00057568808410393
0.35435897960666
-0.00059813561878987
0.3545595475944
-0.00062114162602858
0.35476686666024
-0.0006418689769247
0.35498159941243
-0.00066447454602921
0.35520221570285
-0.00068254760841331
0.35543044499022
-0.00070562671567119
0.35566304849543
-0.00071919414601559
-0.00074489427217588
0.35590417968811
0.33225860040621
-1.8817669519203e-05
0.3322721434255
-5.6188753107017e-05
0.33229467586888
-9.3682852102579e-05
0.3323262108317
-0.00013119131187968
0.33236674183442
-0.00016867827497879
0.33241622838851
-0.00020605177999896
0.33247460626754
-0.00024321902832179
0.33254180496571
-0.00028012428912298
0.33261775360905
-0.00031673051710324
0.33270238554303
-0.00035302822855823
0.3327956325609
-0.00038899764980135
0.33289743225008
-0.00042465220378635
0.33300771518331
-0.00045996018118669
0.3331264197999
-0.00049494668131011
0.33325346093887
-0.00052952257247162
0.3333887668999
-0.00056373831683717
0.33353221601558
-0.00059740964213569
0.33368373259729
-0.00063070625409771
0.3338431481237
-0.00066327933349961
0.33401042020792
-0.00069558892341997
0.33418530686795
-0.00072688404740513
0.33436785868483
-0.00075823987060596
0.33455766728947
-0.00078794419331791
0.33475499145065
-0.0008184657570704
0.33495904442481
-0.00084592192101646
0.33517057459803
-0.00087600468898613
0.33538796301321
-0.00089993599323902
0.33561311495731
-0.00093077862953193
0.33584257008409
-0.00094864924351665
-0.00098319668141734
0.33608087252394
0.31361057399171
-2.3334241257852e-05
0.31362394735335
-6.9562072550545e-05
0.31364616597601
-0.0001159014325583
0.31367725072625
-0.00016227602049244
0.31371719165585
-0.0002086191639065
0.31376593515115
-0.00025479523565184
0.3138234041028
-0.00030068794148693
0.31388952260117
-0.00034624275013296
0.31396422270091
-0.00039143058071806
0.31404744692518
-0.00043625241783058
0.31413913953221
-0.00048069022307295
0.31423925319171
-0.0005247658306124
0.31434773452445
-0.00056844148241247
0.31446453984529
-0.00061175197160737
0.31458960035156
-0.00065458304922618
0.31472286184945
-0.00069699978600707
0.31486421569755
-0.00073876346233038
0.31501360349804
-0.00078009402725549
0.31517086708193
-0.0008205428906415
0.31533598728609
-0.00086070910116113
0.31550873046824
-0.00089962720348179
0.31568918358308
-0.00093869295945841
0.31587693677585
-0.00097569736021836
0.31607230760339
-0.0010138365586009
0.31627447714302
-0.0010480914345614
0.31648429857206
-0.0010858260915895
0.31670004706115
-0.0011156844556661
0.31692383820935
-0.0011545697510067
0.31715193649868
-0.0011767475068342
-0.0012206018650082
0.31738934170978
0.29600918130231
-2.7813646750863e-05
0.29602238842478
-8.2769156239912e-05
0.29604429647446
-0.00013780944350385
0.29607493772722
-0.00019291723503943
0.29611430069438
-0.00024798209371591
0.29616231875062
-0.00030281325543624
0.29621890174926
-0.00035727090469862
0.29628396916679
-0.00041131013321352
0.29635745795094
-0.00046491933150989
0.2964393226262
-0.00051811706072575
0.29652952324747
-0.00057089081309034
0.29662803126092
-0.0006232738137674
0.29673481331008
-0.00067522350234482
0.29684984781256
-0.0007267864457251
0.29697308661618
-0.00077782182543301
0.29710449739162
-0.00082841053474962
0.29724398873328
-0.00087825477807121
0.29739152397067
-0.00092762923924762
0.29754695958804
-0.00097597848319974
0.29771030474682
-0.0010240542354447
0.29788133874804
-0.0010706611805711
0.29806019111244
-0.0011175452998409
0.29824645449431
-0.0011619607182577
0.29844051276728
-0.001207894807658
0.29864151589874
-0.0012490945421383
0.29885043178344
-0.0012947419521531
0.29906542279475
-0.0013306754427368
0.29928883205455
-0.0013779789866069
0.29951662452084
-0.001404539949659
-0.0014582675549042
0.29975429023561
0.27939566464118
-3.2243735521574e-05
0.27940866692412
-9.5771405124142e-05
0.27943020017868
-0.00015934266412775
0.27946031051463
-0.00022302753757509
0.27949898642843
-0.00028665797492205
0.27954614909962
-0.00034997589485169
0.27960169625366
-0.00041281802791581
0.27966554436926
-0.00047515821889239
0.27973763776221
-0.00053701269553529
0.27981794608663
-0.00059842535713382
0.27990644880909
-0.00065939350856664
0.28000314009064
-0.00071996506919505
0.28010801090561
-0.00078009429215254
0.28022106628248
-0.00083984179821918
0.28034228353379
-0.00089903905321236
0.2804716569876
-0.00095778396566035
0.28060911759965
-0.0010157153679204
0.28075465541042
-0.0010731670282433
0.28090814721264
-0.0011294702641528
0.28106963587588
-0.0011855428776638
0.28123892010309
-0.0012399453870571
0.28141617768929
-0.0012948028653661
0.28160101089916
-0.0013467939075783
0.28179387537129
-0.0014007592590967
0.28199389685776
-0.0014491160078799
0.28220216306908
-0.0015030081424554
0.28241672922687
-0.0015452415793465
0.28264017228967
-0.0016014220281974
0.28286815915527
-0.0016325267946407
-0.0016967933506122
0.28310668497305
0.26371456678918
-3.6601045533851e-05
0.26372729295471
-0.00010849754002836
0.26374833529337
-0.00018038497228028
0.26377775575313
-0.00025244796726312
0.26381554409388
-0.00032444628627047
0.26386161037982
-0.00039604215205813
0.26391584164325
-0.00046704926341021
0.26397815340639
-0.00053746995480839
0.26404850003532
-0.00060735929809634
0.2641268694553
-0.00067679475148515
0.26421326413477
-0.00074578816328056
0.26430770482045
-0.00081440573084711
0.26441021115133
-0.00088260059985177
0.26452081925709
-0.00095044988144998
0.26463953695042
-0.0010177567247832
0.2647663901586
-0.0010846371526305
0.26490133795793
-0.001150663146678
0.26504440240877
-0.001216231458918
0.26519548740995
-0.001280555245654
0.265354675133
-0.0013447305812943
0.26552179195224
-0.001407062187211
0.26569706926162
-0.001470080155759
0.26588012900364
-0.0015298536308193
0.266071502526
-0.0015921327626274
0.26627030404191
-0.0016479175050487
0.26647774171118
-0.0017104457928248
0.26669177997573
-0.0017592798249948
0.26691522446678
-0.0018248665004438
0.26714346556212
-0.0018607678718024
-0.0019363179642539
0.26738299019522
0.24891354595346
-4.085428368262e-05
0.24892590157843
-0.00012085313842361
0.24894630092705
-0.00020078429445682
0.24897482294664
-0.00028096996077777
0.2490114596953
-0.00036108300942884
0.24905611144508
-0.00044069387687981
0.24910865632913
-0.00051959412317577
0.24916901110709
-0.00059782470907912
0.24923714276538
-0.00067549093341267
0.24931306032995
-0.00075271229368915
0.24939679251076
-0.00082952032246739
0.2494883901064
-0.00090600330545224
0.24958790542409
-0.00098211589723621
0.24969540980085
-0.001057954238432
0.24981094643106
-0.0011332933358782
0.24993457755743
-0.001208268260338
0.25006629638942
-0.0012823819605493
0.25020616227351
-0.0013560973252188
0.25035411379997
-0.0014285067547561
0.25051027793414
-0.0015008946983024
0.25067451846486
-0.0015713027010637
0.25084712517441
-0.0016426868485055
0.25102775261934
-0.0017104810591239
0.25121700991274
-0.0017813900393518
0.25141401760034
-0.001844925176051
0.25162010017715
-0.0019165283528978
0.25183315797079
-0.0019723376019125
0.25205620851587
-0.0020479170288852
0.25228440802016
-0.0020889673600293
-0.0021766057272832
0.25252469580049
0.23494320084481
-4.4967546079761e-05
0.23495507766374
-0.00013272993383392
0.23497466144188
-0.0002203680491591
0.23500204802943
-0.00030835652515153
0.23503723244106
-0.00039626739834146
0.23508010662606
-0.00048356803956503
0.23513054174856
-0.00057002922388386
0.23518845783513
-0.00065574077427563
0.23525383665489
-0.0007408697323823
0.23532671057704
-0.00082558619549421
0.23540713712681
-0.0009099468524956
0.23549519985791
-0.00099406601726193
0.2355909870464
-0.0010779030670335
0.23569460859295
-0.0011615757667083
0.23580614742865
-0.0012448321538678
0.23592570623754
-0.001327827051891
0.23605331823897
-0.0014099939451168
0.2361890849204
-0.0014918639900789
0.23633298751993
-0.0015724093381204
0.23648520282337
-0.0016531099857674
0.23664564285656
-0.0017317427185875
0.2368146596273
-0.0018117036036768
0.23699195548079
-0.0018877768972776
0.23717821741841
-0.0019676519616515
0.23737259521058
-0.0020393029530722
0.23757652079578
-0.0021204539229009
0.23778786713784
-0.002183683928907
0.23800983602538
-0.0022698859015531
0.23823741228123
-0.0023165436016009
-0.0024171169379906
0.23847792350729
0.22175690579249
-4.8903529101065e-05
0.22176819166844
-0.00014401578931071
0.22178678151055
-0.00023895787085393
0.22181278695272
-0.00033436194710177
0.22184620634037
-0.00042968676611493
0.22188692462202
-0.00052428630162883
0.22193480776103
-0.00061791234370137
0.22198978074858
-0.00071071374293737
0.22205184176919
-0.00080293073454773
0.22212104799161
-0.00089479239978528
0.22219748743516
-0.00098638627839524
0.22228127812899
-0.0010778566937675
0.22237254663021
-0.0011691715513924
0.222471443679
-0.001260472798972
0.2225780953959
-0.0013514838546802
0.22269264805538
-0.0014423796955643
0.22281518018666
-0.0015325260609992
0.22294583942722
-0.0016225232154642
0.22308465749536
-0.0017112273914292
0.22323186512183
-0.0018003175975612
0.22338743391197
-0.0018873114943247
0.22355178070735
-0.0019760503847407
0.22372467275515
-0.0020606689309871
0.22390687271886
-0.0021498519112942
0.2240975868854
-0.0022300171057133
0.22429834112814
-0.002321208151751
0.22450702762892
-0.002392370415948
0.22472699394774
-0.0024898522068435
0.22495313695814
-0.0025426865990483
-0.0026570640852978
0.2251930841194
0.20931065352465
-5.2625086562016e-05
0.20932124270951
-0.00015460495604649
0.20933866728741
-0.00025638243064691
0.20936305401768
-0.00035874865936929
0.20939440469829
-0.00046103742897637
0.20943259854942
-0.00056248013517631
0.20947749804483
-0.00066281182181599
0.20952903455714
-0.00076225023814587
0.20958722358489
-0.00086111974550045
0.20965214756217
-0.00095971636047818
0.20972392559165
-0.0010581642916399
0.20980271062474
-0.0011566417108411
0.20988866852866
-0.0012551294396562
0.2099819918086
-0.001353796063486
0.2100828519782
-0.0014523440092152
0.21019144070437
-0.0015509684068769
0.21030788610987
-0.0016489714519939
0.21043238472558
-0.0017470218168357
0.21056502594931
-0.0018438686011444
0.21070609723946
-0.0019413888738357
0.21085564113211
-0.0020368553733771
0.21101414017599
-0.002134549415119
0.21118144480927
-0.0022279735510018
0.21135838864866
-0.0023267957374976
0.21154426581665
-0.0024158942607306
0.21174067751713
-0.0025176198393072
0.21194559105259
-0.0025972839387041
0.21216245046146
-0.0027067116032708
0.2123861682176
-0.0027664043433326
-0.0028954541168324
0.2126245582619
0.19756290961759
-5.6098158966202e-05
0.19757270734098
-0.00016440266337392
0.19758881182094
-0.00027248689451026
0.19761136396338
-0.00038130078575209
0.19764036910674
-0.00049004255645154
0.19767570193329
-0.00059781294593636
0.19771722277832
-0.00070433265124536
0.1977648700208
-0.00080989746512957
0.19781867651683
-0.00091492622624127
0.19787874948899
-0.0010197893174759
0.1979452385016
-0.0011246532893245
0.19801833049064
-0.0012297336850785
0.19809823025256
-0.0013350291870531
0.19818517138093
-0.001440737177473
0.19827937148203
-0.001546544096207
0.19838106780508
-0.0016526647159677
0.19849044096944
-0.0017583446026746
0.19860773750496
-0.0018643183388184
0.19873311057213
-0.0019692416550422
0.19886690535605
-0.0020751836446141
0.19900924606425
-0.0021791960686826
0.19916067972164
-0.0022859830597251
0.19932115897412
-0.0023884527909329
0.1994915805712
-0.0024972173221181
0.19967136091996
-0.002595674597243
0.19986215286321
-0.0027084117704044
0.2000620631737
-0.0027971942372768
0.20027457204035
-0.0029192204582806
0.20049473111614
-0.0029865634080198
-0.0031311255087218
0.20073040251998
0.18647447266594
-5.9293441231223e-05
0.18648339875076
-0.00017332873366185
0.18649805222267
-0.00028714035180167
0.18651858661236
-0.00040183516082504
0.18654501045637
-0.00051646638594471
0.18657719482787
-0.00062999730296278
0.18661499895864
-0.00074213676765896
0.18665836833957
-0.00085326683174029
0.18670735226289
-0.00096391013538477
0.18676208088855
-0.0010745179290091
0.18682273233195
-0.0011853047187748
0.18688952537751
-0.0012965267167438
0.18696270186597
-0.0014082056618061
0.18704253420857
-0.0015205695064484
0.18712928514397
-0.0016332950181905
0.18722323588607
-0.0017466154447397
0.1873246208035
-0.0018597295070138
0.18743373560434
-0.0019734331266873
0.18755080177944
-0.0020863078174067
0.18767622103478
-0.0022006028873502
0.18781020891986
-0.0023131839414094
0.18795337292476
-0.0024291470524023
0.18810578692624
-0.0025408667804322
0.18826839947522
-0.0026598298592495
0.18844078649712
-0.0027680616075211
0.18862462303433
-0.0028922482961234
0.18881822735326
-0.00299079854496
0.18902504401699
-0.0031260371110529
0.18924040639946
-0.0032019257800392
-0.0033627796655527
0.18947206056756
0.1760083428093
-6.2187478022779e-05
0.17601633505765
-0.00018132096863204
0.17602943607752
-0.00030024135819229
0.17604780997396
-0.00042020904374103
0.17607146786695
-0.00054012426549263
0.17610027788472
-0.00065880730730064
0.17613409879292
-0.00077595766251817
0.17617288269413
-0.00089205071963171
0.17621669360235
-0.0010077210304042
0.17626568187102
-0.0011235061844934
0.1763200509913
-0.0012396738259863
0.17638004782076
-0.0013565235331548
0.17644594799525
-0.0014741058233814
0.17651805902296
-0.0015926805212807
0.17659668613644
-0.0017119221189337
0.17668215110336
-0.0018320803989822
0.17677474146027
-0.0019523198514305
0.17687479915091
-0.0020734908049344
0.17698261678864
-0.0021941254429645
0.17709864877256
-0.0023166348592259
0.17722321035301
-0.002437745510076
0.17735696190941
-0.0025628985971823
0.17750011776285
-0.002684022622509
0.17765366132975
-0.0028133734149511
0.17781736843515
-0.0029317687019816
0.17799289954377
-0.0030677793939523
0.17817886461136
-0.0031767636019891
0.17837859016704
-0.0033257626564647
0.17858784935112
-0.0034111849542918
-0.0035890111200335
0.17881408081627
0.16612959788235
-6.4763368671476e-05
0.1661366138165
-0.00018833689021193
0.16614809349058
-0.00031172101958357
0.16616420918756
-0.00043632472801542
0.1661849736363
-0.00056088870160451
0.16621025243445
-0.00068408609286409
0.16623990416623
-0.00080560938184346
0.16627388651781
-0.00092603305880311
0.16631227580052
-0.0010461103008458
0.16635523898015
-0.0011664693518923
0.16640300078495
-0.0012874356186719
0.16645583138234
-0.0014093541184544
0.16651403539492
-0.0015323098239604
0.16657795010768
-0.0016565952220418
0.16664791918586
-0.0017818911852316
0.16672429985634
-0.001908461057606
0.16680743043015
-0.0020354504135349
0.16689769399247
-0.0021637543556349
0.16699545516336
-0.0022918866024557
0.16710121418648
-0.0024223938710921
0.16721539326704
-0.0025519245796659
0.16733869319821
-0.0026861985175839
0.16747148951067
-0.0028168189245012
0.16761477480917
-0.0029566587032131
0.16776857087828
-0.0030855647611212
0.16793447345562
-0.0032336819615226
0.16811147499881
-0.0033537651356288
0.16830268416805
-0.0035169718164084
0.16850451133246
-0.003613012109747
-0.0038083452756221
0.16872384549789
0.15680527643411
-6.7011101611462e-05
0.1568112941065
-0.00019435455057819
0.15682111710322
-0.00032154400420113
0.15683492329161
-0.00045013090436508
0.15685272600637
-0.00057869140450026
0.15687438855777
-0.00070574863255166
0.15689976930792
-0.00083099012051671
0.15692883008825
-0.00095509382782431
0.15696165649301
-0.0010789366945334
0.15699842788153
-0.0012032407294766
0.15703938526476
-0.0013283929911477
0.15708481656812
-0.0014547854110995
0.15713504958206
-0.0015825428272964
0.15719044500914
-0.0017119906385234
0.15725137899551
-0.0018428251610818
0.15731823796002
-0.0019753200116139
0.15739140664995
-0.0021086190930747
0.15747130260245
-0.0022436502978478
0.15755836089083
-0.0023789448807524
0.15765311837599
-0.0025171513463551
0.15775610911353
-0.0026549153076069
0.15786805777032
-0.0027981471650655
0.15798952270554
-0.0029382838507446
0.15812146996262
-0.0030886059516256
0.1582642270808
-0.0032283218709569
0.15841924056314
-0.0033886954357681
0.1585860192465
-0.003520543811097
0.15876727922778
-0.0036982317899862
0.15896034593551
-0.0038060788099471
-0.0040192132282216
0.15917121389658
0.14800426731751
-6.892747817859e-05
0.14800928472527
-0.00019937194648448
0.14801744843041
-0.00032970769752342
0.14802893922503
-0.00046162168743307
0.14804376989589
-0.00059352206419883
0.14806180163619
-0.00072378036207372
0.14808289239218
-0.00085208086620505
0.14810700650624
-0.00097920793199571
0.14813423551431
-0.0011061656931478
0.14816476657093
-0.0012337717769517
0.14819885134001
-0.0013624777513878
0.14823678942777
-0.0014927234901627
0.14827892501732
-0.0016246784083005
0.14832563540902
-0.0017587010217107
0.14837732188133
-0.001894511624949
0.14843439308339
-0.0020323912052368
0.14849727318833
-0.0021714991896924
0.14856640773361
-0.0023127848348965
0.1486422960624
-0.0024548332015175
0.1487255041404
-0.0026003594165696
0.14881667446648
-0.0027460856262516
0.14891654329224
-0.0028980159837373
0.14902586112906
-0.0030476016809176
0.14914553607114
-0.0032082808874508
0.1492762608207
-0.0033590466146596
0.14941923033754
-0.0035316649470491
0.1495746520739
-0.0036759655421167
0.14974456503233
-0.0038681447431776
0.14992764972904
-0.0039891635013405
-0.0042198768344294
0.1501283133416
0.1396972053838
-7.0515590612561e-05
0.13970123921655
-0.00020340576667419
0.13970777145624
-0.00033623992480919
0.13971698319574
-0.00047083341511771
0.13972888565675
-0.00060542451418217
0.139743338013
-0.00073823270810833
0.13976019741115
-0.00086894025499765
0.13977942891721
-0.00099843942948237
0.13980112658903
-0.0011278633571391
0.13982548082799
-0.0012581260086576
0.13985274816739
-0.0013897450840284
0.13988323364324
-0.0015232089595394
0.13991729022905
-0.0016587349878669
0.13995530478716
-0.0017967155736668
0.13999769485611
-0.0019369016878253
0.14004488503645
-0.0020795813795183
0.14009732844526
-0.0022239425925423
0.14015549436394
-0.0023709507477266
0.14021993273257
-0.0025192715645356
0.14029123855384
-0.0026716652325088
0.14037014307397
-0.0028249901414595
0.14045740133876
-0.0029852742440668
0.1405539278925
-0.003144128230731
0.14066058777352
-0.0033149407650816
0.140778412171
-0.0034768710092722
0.14090836188193
-0.0036616146555153
0.14105136931092
-0.0038189729688863
0.14120875485635
-0.0040255302863927
0.14138062634317
-0.0041610349855645
-0.0044088928677735
0.14156964238027
0.13185637277752
-7.1783624792049e-05
0.13185945542147
-0.00020648839520957
0.13186441063065
-0.00034119511864701
0.13187141704233
-0.00047783981242178
0.13188048317079
-0.00061449062960979
0.13189146654817
-0.00074921607385111
0.13190422332258
-0.00088169701917434
0.1319187172085
-0.0010129333064205
0.13193504105136
-0.0011441871921563
0.13195338373954
-0.0012764686898981
0.13197400122025
-0.0014103625585109
0.1319971980144
-0.001546405747926
0.132023328495
-0.0016848654630279
0.13205278191422
-0.0018261689876022
0.13208598259317
-0.0019701023616138
0.13212336490144
-0.0021169636826708
0.13216539835209
-0.0022659760381884
0.13221257339577
-0.002418125786557
0.13226546968797
-0.0025721678521587
0.13232471875503
-0.0027309142953742
0.13239110241818
-0.0028913738009258
0.13246542889696
-0.0030596007197768
0.13254870127401
-0.003227400605419
0.13264183199891
-0.0034080714883614
0.1327460282061
-0.0035810672155464
0.13286220065303
-0.0037777871021231
0.13299178008798
-0.0039485524038648
0.13313564941468
-0.0041693996130983
0.13329525086668
-0.0043206364369345
-0.0045848832878507
0.13347124128872
0.12445560607488
-7.2743341233698e-05
0.12445778179317
-0.00020866409110245
0.12446123608618
-0.00034464938872598
0.12446614118784
-0.00048274489229303
0.12447250243263
-0.00062085185449174
0.12448017666055
-0.00075689028388415
0.1244890189089
-0.00089053925162583
0.12449898960294
-0.001022903986323
0.12451017698317
-0.0011553745597859
0.12452276342717
-0.0012890551224906
0.12453699894945
-0.0014245980703085
0.12455318086157
-0.001562587650206
0.12457165829203
-0.0017033428840798
0.12459281486786
-0.0018473255542743
0.1246170744881
-0.0019943619728746
0.12464487333979
-0.002144762525514
0.12467668822831
-0.0022977909180546
0.12471302403056
-0.0024544615803964
0.12475447196424
-0.0026136157778396
0.12480170224903
-0.0027781445726989
0.12485550298453
-0.0029451745296932
0.1249167803008
-0.0031208780301777
0.12498651351179
-0.0032971338115312
0.12506583989283
-0.0034873978655846
0.12515583900931
-0.0036710663292352
0.12525781082688
-0.0038797589178362
0.12537289690294
-0.004063638478693
0.12550253908507
-0.0042990417941161
0.12564854406171
-0.0044666414117893
-0.0047474920595708
0.12581115283684
0.11747021076353
-7.3410296333268e-05
0.11747153318748
-0.00020998647978018
0.11747358072249
-0.00034669688708092
0.11747651091035
-0.00048567504459497
0.11748032847331
-0.00062466938409421
0.11748489260607
-0.0007614543857689
0.11749005563374
-0.0008957022508639
0.11749577225677
-0.0010286205830546
0.11750212335703
-0.0011617256355635
0.11750928083024
-0.0012962125726194
0.11751748526351
-0.0014328024815848
0.11752702016477
-0.0015721225302365
0.11753822341962
-0.0017145461182397
0.11755146225157
-0.0018605643659066
0.11756715575895
-0.0020100554602329
0.11758572914784
-0.0021633358946699
0.11760766724698
-0.0023197289977954
0.11763347008291
-0.002480264397384
0.11766374420862
-0.0026438898852438
0.11769916956336
-0.0028135699100081
0.11774053673983
-0.0029865416898076
0.11778883261297
-0.0031691738882851
0.11784494874261
-0.0033532499275704
0.11791037773321
-0.0035528268441359
0.11798576095544
-0.0037464495409301
0.11807355510868
-0.0039675530620283
0.11817312361079
-0.0041632069729246
0.11828882764809
-0.0044147458241226
0.11841774556037
-0.0045955593164565
-0.0048990352869801
0.11856928879753
0.11087688616757
-7.3811520127095e-05
0.11087742451716
-0.00021052477633908
0.11087817713321
-0.00034744944803648
0.11087927601529
-0.00048677387267604
0.11088073303534
-0.00062612635254535
0.11088241667885
-0.0007631379804284
0.11088417228869
-0.0008974578144802
0.11088594597044
-0.001030394220866
0.11088780786727
-0.0011635874903195
0.11088991577458
-0.0012983204392997
0.11089249803884
-0.0014353847063285
0.11089582061272
-0.0015754450654173
0.1109002065873
-0.0017189320547519
0.11090599843593
-0.0018663561769528
0.11091360858178
-0.0020176655689764
0.11092343622068
-0.0021731634969144
0.11093598162555
-0.0023322743666249
0.11095170597627
-0.0024959887127978
0.11097126299727
-0.002663446872001
0.11099526151209
-0.0028375683919245
0.11102459001079
-0.0030158701573214
0.11106013482266
-0.0032047186709304
0.1111029024486
-0.0033960175264419
0.11115440818351
-0.0036043325541656
0.11121509841233
-0.0038071397471327
0.1112886048402
-0.0040410594695483
0.11137216748428
-0.0042467695987329
0.11147595085011
-0.0045185291731115
0.11158348193726
-0.0047030903871803
-0.0050421812328849
0.11172662790219
0.10465364206584
-7.3987554248624e-05
0.10465350618396
-0.00021038882253615
0.10465308276074
-0.00034702595157374
0.10465250264925
-0.00048619368929749
0.10465180250033
-0.00062542613419525
0.10465085243893
-0.00076218785228924
0.10464949874152
-0.00089610405283533
0.10464767312112
-0.0010285685383339
0.10464542694616
-0.0011613412549151
0.10464290430699
-0.0012957977409585
0.10464031882272
-0.0014327991638836
0.10463791415539
-0.0015730403406953
0.10463599093735
-0.0017170087799719
0.1046348623849
-0.0018652275683733
0.10463493391425
-0.0020177370427989
0.10463657563137
-0.0021748051592377
0.10464031150383
-0.0023360101851645
0.10464653836446
-0.002502215520712
0.10465599022191
-0.002672898678307
0.10466910091323
-0.0028506790342247
0.10468701621525
-0.003033785412874
0.1047101757026
-0.0032278781148153
0.10474031069097
-0.0034261524743949
0.10477779254658
-0.0036418143725116
0.10482479232482
-0.0038541394912713
0.10488227308862
-0.0040985402026292
0.10495144156098
-0.0043159380435495
0.10503941306437
-0.0046065006515044
0.10513523439752
-0.0047989116966738
-0.0051732848889298
0.1052663380808
0.09877964736556
-7.3916573538944e-05
0.098778989073372
-0.00020973044594315
0.098777481334598
-0.00034551812785912
0.09877535395273
-0.00048406622397632
0.098772746087356
-0.00062281818757702
0.09876940088307
-0.0007588425690185
0.098765246887612
-0.00089194998037449
0.098760184561671
-0.0010235061369267
0.098754228867006
-0.0011553854859297
0.098747512568285
-0.0012890813687162
0.098740240653587
-0.0014255271762846
0.098732631640753
-0.0015654312554385
0.098724952607169
-0.0017093296744617
0.098717479204748
-0.0018577540945107
0.098710592922853
-0.0020108506901089
0.098704636468127
-0.0021688486344849
0.098700143731435
-0.0023315173795915
0.098697464446657
-0.0024995361686125
0.098697394999966
-0.002672829166598
0.098700198701862
-0.0028534826741209
0.098707278942657
-0.0030408655955079
0.098718511209251
-0.0032391103274909
0.098736645105056
-0.0034442863207383
0.098760129913634
-0.0036652991359986
0.098794709733231
-0.0038887192702521
0.098834580641354
-0.0041384110748688
0.0988919198288
-0.0043732771996817
0.098952093095993
-0.0046666738907016
0.099039327326694
-0.0048861459003526
0.099191301889552
-0.0053252594211302
0.39464707637689
0.0046447614972207
0.39016170352692
0.0044853728720129
0.38584023191431
0.0043214716345165
0.3816870628816
0.0041531690547794
0.37770645737825
0.0039806055256306
0.37390253476343
0.0038039226374872
0.37027926716858
0.003623267617828
0.36684047175221
0.003438795439772
0.36358980368366
0.0032506680922767
0.36053075122286
0.003059052484921
0.35766663225672
0.0028641189905485
0.35500059063088
0.0026660416506036
0.35253559206361
0.0024649985922536
0.35027441963537
0.0022611724535326
0.3482196694223
0.0020547502384858
0.34637374624496
0.001845923203001
0.34473885974376
0.0016348865269177
0.3433170207215
0.0014218390481512
0.34211003762828
0.001206983119091
0.34111951321982
0.00099052443445008
0.3403468404512
0.00077267279454177
0.33979319699059
0.00055364348660996
0.33945953244395
0.00033366457254683
0.33934650811096
0.00011302435896848
0.33945479657465
-0.00010828843781694
0.33978477041435
-0.00032997381374247
0.34033642648306
-0.00055165604285474
0.3411096147086
-0.00077318819958271
0.34210396193492
-0.00099434720047787
0.34331886225597
-0.0012149002951249