/*--------------------------------*- C++ -*----------------------------------*\
| =========                 |                                                 |
| \\      /  F ield         | OpenFOAM: The Open Source CFD Toolbox           |
|  \\    /   O peration     | Version:  2112                                  |
|   \\  /    A nd           | Website:  www.openfoam.com                      |
|    \\/     M anipulation  |                                                 |
\*---------------------------------------------------------------------------*/
FoamFile
{
    version     2.0;
    format      ascii;
    arch        "LSB;label=32;scalar=64";
    class       volVectorField;
    location    "19";
    object      U;
}
// * * * * * * * * * * * * * * * * * * * * * * * * * * * * * * * * * * * * * //

dimensions      [0 1 -1 0 0 0 0];

internalField   nonuniform List<vector> 
22000
(
(1.0000010376596 -2.5967288867887e-05 0)
(1.0000268826941 -7.7681781651127e-05 0)
(1.0000763703955 -0.00012919826491528 0)
(1.0001506881614 -0.0001805994952633 0)
(1.000250350262 -0.00023192812431301 0)
(1.0003753088355 -0.0002831307066519 0)
(1.0005252957762 -0.00033409446482139 0)
(1.0007000258359 -0.0003847155127673 0)
(1.0008992436754 -0.00043490826045733 0)
(1.0011227331007 -0.00048463442723107 0)
(1.0013702791978 -0.0005338547347945 0)
(1.0016416731912 -0.00058257856271 0)
(1.0019366679268 -0.00063075925486805 0)
(1.0022550284127 -0.00067842566425202 0)
(1.002596457424 -0.00072546319616243 0)
(1.0029607006581 -0.00077194116064421 0)
(1.0033473873313 -0.00081762621504973 0)
(1.0037562537867 -0.00086273980240476 0)
(1.004186821572 -0.0009068258884527 0)
(1.004638870014 -0.00095047157533616 0)
(1.005111762453 -0.00099268870940238 0)
(1.0056054147383 -0.001034862495921 0)
(1.006118894281 -0.001074754643394 0)
(1.0066524075378 -0.0011155767210479 0)
(1.0072044458364 -0.001152261994976 0)
(1.0077758326805 -0.0011922444535239 0)
(1.0083639805464 -0.0012240508626359 0)
(1.0089710163742 -0.0012647762197161 0)
(1.0095923282513 -0.0012883635357852 0)
(1.0102327947158 -0.0013338840127969 0)
(1.0000004983243 -7.6482415446864e-05 0)
(1.0000263720845 -0.00022887818097862 0)
(1.0000761814008 -0.00038085970763468 0)
(1.0001510591515 -0.00053263298980473 0)
(1.0002515732479 -0.00068426082280948 0)
(1.0003777345632 -0.00083554267645427 0)
(1.0005292998756 -0.0009861336388457 0)
(1.0007059922691 -0.0011357332610975 0)
(1.0009075468011 -0.0012840986823478 0)
(1.001133753745 -0.001431121501195 0)
(1.001384388683 -0.0015766882404581 0)
(1.0016592685572 -0.0017208258413148 0)
(1.0019581284784 -0.0018633996568237 0)
(1.0022807848705 -0.0020044910678554 0)
(1.0026268911077 -0.0021437646551344 0)
(1.0029962901079 -0.0022814111544209 0)
(1.0033884866654 -0.0024167499008782 0)
(1.0038034141312 -0.0025504097248645 0)
(1.0042403131596 -0.0026810787661473 0)
(1.0046993869697 -0.0028104412051957 0)
(1.0051793881282 -0.002935669097357 0)
(1.0056811514713 -0.003060726134587 0)
(1.0062024191704 -0.0031792130952909 0)
(1.0067453723876 -0.0033002891409347 0)
(1.0073056468455 -0.0034095005398523 0)
(1.0078882806181 -0.0035280038059574 0)
(1.0084845910143 -0.0036231632431497 0)
(1.0091057013829 -0.0037435285114514 0)
(1.0097340184192 -0.0038152151978033 0)
(1.0103937877888 -0.0039488518872272 0)
(1.0000005532241 -0.00012510854162254 0)
(1.0000274790494 -0.00037424459900319 0)
(1.0000791402428 -0.00062289140450624 0)
(1.0001566281117 -0.0008713990122945 0)
(1.0002604745507 -0.0011197525672274 0)
(1.0003906647709 -0.0013675258575448 0)
(1.0005469287027 -0.0016141307043749 0)
(1.0007289808204 -0.0018591061160788 0)
(1.000936543343 -0.0021020950352804 0)
(1.0011694216151 -0.0023429492846804 0)
(1.0014273805346 -0.0025814955858348 0)
(1.0017102762173 -0.0028177879667304 0)
(1.0020178178853 -0.0030516073383203 0)
(1.0023499001298 -0.0032830939387573 0)
(1.0027061028149 -0.003511685254668 0)
(1.0030864186809 -0.0037376957333955 0)
(1.0034901618003 -0.0039599794974876 0)
(1.003917572417 -0.004179588388548 0)
(1.0043674493041 -0.0043943312548096 0)
(1.0048406692107 -0.0046070428292083 0)
(1.0053349996927 -0.0048130044705592 0)
(1.0058527704627 -0.0050188739564494 0)
(1.0063895320926 -0.0052139474796622 0)
(1.0069507627217 -0.0054135780310709 0)
(1.0075272404395 -0.0055935607707984 0)
(1.0081312407195 -0.0057893404345897 0)
(1.0087433813559 -0.0059462481471855 0)
(1.0093907335609 -0.0061456244277753 0)
(1.0100321110884 -0.0062636955385824 0)
(1.0107274310795 -0.0064858089444576 0)
(1.0000006081438 -0.00017294892521014 0)
(1.0000287090103 -0.00051675252452324 0)
(1.0000825243094 -0.00085993226313661 0)
(1.0001632010183 -0.0012030859392197 0)
(1.0002712741756 -0.001546041698565 0)
(1.0004066858077 -0.0018880681122188 0)
(1.0005691017425 -0.0022283309788058 0)
(1.0007582060328 -0.0025662665792531 0)
(1.0009736978486 -0.0029014709125573 0)
(1.0012154057549 -0.0032338071104877 0)
(1.001483084013 -0.0035630686068153 0)
(1.0017766468096 -0.0038893563875147 0)
(1.0020957705217 -0.0042123733006965 0)
(1.0024404613985 -0.0045323319514661 0)
(1.0028102006854 -0.0048484311321149 0)
(1.0032051934559 -0.0051611189550119 0)
(1.0036244929808 -0.0054687509467578 0)
(1.004068771456 -0.0057728356446105 0)
(1.0045362171381 -0.0060702493361483 0)
(1.0050286502681 -0.0063650753729342 0)
(1.0055424697807 -0.0066505905201623 0)
(1.0060820970103 -0.0069363593715213 0)
(1.0066400275981 -0.0072070876206961 0)
(1.0072263509848 -0.0074847767806761 0)
(1.0078250644667 -0.0077347871369178 0)
(1.0084585737626 -0.0080078738932232 0)
(1.0090925514236 -0.0082257566663269 0)
(1.009776416699 -0.0085049110716546 0)
(1.0104360083138 -0.008668057544322 0)
(1.0111812621291 -0.0089806566307492 0)
(1.000000675394 -0.00022024348414613 0)
(1.0000301008823 -0.00065710237715049 0)
(1.0000863398211 -0.0010931872930357 0)
(1.0001706216394 -0.0015294314519798 0)
(1.0002835011322 -0.0019653962273483 0)
(1.0004248754035 -0.0023999492047843 0)
(1.0005943321023 -0.0028320108603034 0)
(1.0007915168543 -0.0032609873938274 0)
(1.0010161015905 -0.0036865095426974 0)
(1.001267948431 -0.0041085131064228 0)
(1.0015468051039 -0.0045267902228966 0)
(1.0018526659537 -0.0049415142042419 0)
(1.0021851745026 -0.0053523188321093 0)
(1.0025444847582 -0.0057595069182481 0)
(1.0029299636707 -0.0061620234387464 0)
(1.0033420902583 -0.0065604618359066 0)
(1.0037796013333 -0.0069526347866215 0)
(1.0042437175534 -0.0073405498587798 0)
(1.0047318741954 -0.0077200816754591 0)
(1.0052470805593 -0.0080966888959207 0)
(1.0057840360932 -0.008461495818638 0)
(1.006349789228 -0.0088272492729345 0)
(1.0069330272382 -0.0091736903273484 0)
(1.0075496253908 -0.0095300601212212 0)
(1.0081751050199 -0.0098503894439783 0)
(1.0088445745223 -0.010202082080515 0)
(1.0095049948401 -0.010481185270322 0)
(1.0102338074609 -0.010842396348943 0)
(1.0109154913877 -0.011050215909274 0)
(1.0117227409182 -0.011457330963528 0)
(1.0000007528685 -0.00026709094883267 0)
(1.000031572537 -0.00079553553118887 0)
(1.0000903448634 -0.0013230692988707 0)
(1.0001783946317 -0.001851061169624 0)
(1.0002963031702 -0.0023786738538163 0)
(1.0004439206653 -0.0029042587547775 0)
(1.0006207488554 -0.0034264893995111 0)
(1.000826393895 -0.00394482455681 0)
(1.0010605022149 -0.0044590233324101 0)
(1.0013229829408 -0.0049691643172261 0)
(1.0016135857035 -0.0054750752053899 0)
(1.0019324092763 -0.0059770307238422 0)
(1.0022790708924 -0.0064746067248834 0)
(1.0026539096288 -0.0069682166205436 0)
(1.0030561724367 -0.0074565353975864 0)
(1.0034866714334 -0.007940314310505 0)
(1.003943788118 -0.0084167743618531 0)
(1.0044293973902 -0.008888468621777 0)
(1.0049400701234 -0.0093501946608999 0)
(1.0054802201613 -0.0098089273454009 0)
(1.0060425763879 -0.010253476127883 0)
(1.0066372778035 -0.010700076540893 0)
(1.0072485708367 -0.011123088949261 0)
(1.0078991233803 -0.011559653996838 0)
(1.0085545423001 -0.01195146957919 0)
(1.0092648423292 -0.012384092263716 0)
(1.0099550489066 -0.012725568381492 0)
(1.0107355045802 -0.013172307914383 0)
(1.0114421213555 -0.013425222390386 0)
(1.0123213889297 -0.013932313718542 0)
(1.0000008376479 -0.00031344381368189 0)
(1.0000330207736 -0.00093186848268788 0)
(1.000094247388 -0.0015492708161837 0)
(1.0001859472691 -0.002167565942209 0)
(1.0003087339693 -0.0027853753906502 0)
(1.0004624093466 -0.0034004097127182 0)
(1.0006463843877 -0.0040110947733393 0)
(1.0008602278302 -0.0046170331564626 0)
(1.0011035664591 -0.0052182160420573 0)
(1.001376372338 -0.0058149426287072 0)
(1.0016784098039 -0.0064071183618548 0)
(1.0020099078867 -0.0069951523062852 0)
(1.0023704704225 -0.0075785771064937 0)
(1.0027606590886 -0.008157939654259 0)
(1.0031796053937 -0.0087316308349682 0)
(1.0036285101106 -0.0093005725565869 0)
(1.0041053784709 -0.0098613465043226 0)
(1.0046128327282 -0.010417098301256 0)
(1.0051465013256 -0.010961476236478 0)
(1.0057123846873 -0.011503115042423 0)
(1.006301036098 -0.012028350640456 0)
(1.0069260679894 -0.012557217840763 0)
(1.007566788721 -0.013058277530432 0)
(1.0082534880879 -0.013577238718386 0)
(1.0089406989198 -0.014042440626714 0)
(1.0096951549495 -0.01455912950063 0)
(1.0104173208138 -0.014964944859279 0)
(1.0112544707454 -0.015501615557044 0)
(1.0119880194212 -0.015800865305723 0)
(1.0129474668601 -0.01641445623671 0)
(1.0000009271746 -0.00035912400457883 0)
(1.0000343440791 -0.0010655463458239 0)
(1.0000977582699 -0.0017708695490835 0)
(1.000192712917 -0.0024776716137239 0)
(1.0003198596982 -0.0031838856286587 0)
(1.0004789526321 -0.0038864534808251 0)
(1.0006693096314 -0.0045835560123588 0)
(1.0008904656861 -0.0052750382968347 0)
(1.001142036343 -0.0059612354389812 0)
(1.0014240739813 -0.0066427511366899 0)
(1.0017363744147 -0.0073196159520852 0)
(1.0020793237909 -0.0079924096647871 0)
(1.0024525315202 -0.008660641026817 0)
(1.0028568187117 -0.0093250153954271 0)
(1.0032912162528 -0.0099836300422473 0)
(1.0037573643764 -0.010637589956377 0)
(1.0042528899457 -0.011282795883256 0)
(1.0047812413561 -0.0119230300942 0)
(1.0053370628242 -0.012550730481765 0)
(1.0059280870189 -0.013176327791066 0)
(1.006542557683 -0.013783544887507 0)
(1.0071978597678 -0.014396507536808 0)
(1.0078680105212 -0.014977589573245 0)
(1.0085915592816 -0.01558169724716 0)
(1.0093111101194 -0.01612283620463 0)
(1.0101115111622 -0.016727408892944 0)
(1.0108666750356 -0.017200321755355 0)
(1.0117639383222 -0.017832123631235 0)
(1.0125256374736 -0.018179856013833 0)
(1.013571559107 -0.018907372278386 0)
(1.000001018536 -0.00040385551790127 0)
(1.0000354457882 -0.0011957403737006 0)
(1.0001006031724 -0.0019864936678959 0)
(1.0001981530271 -0.0027794749487932 0)
(1.0003287929803 -0.003571780911705 0)
(1.0004922319509 -0.0043594581593305 0)
(1.0006876944694 -0.0051404496445624 0)
(1.0009146860789 -0.0059149472318044 0)
(1.0011728214122 -0.0066837475932516 0)
(1.0014622511182 -0.0074478468051171 0)
(1.001782822462 -0.0082074523721358 0)
(1.0021351053203 -0.0089633537213079 0)
(1.0025187388963 -0.0097150602109749 0)
(1.0029348383861 -0.010463462019048 0)
(1.0033823586942 -0.011206360196325 0)
(1.0038634239344 -0.011945053911386 0)
(1.0043752996518 -0.012674732356968 0)
(1.0049223228152 -0.01339985233003 0)
(1.0054981493368 -0.014111600031734 0)
(1.0061123504186 -0.014822321208322 0)
(1.0067508023561 -0.015513022169698 0)
(1.0074348696898 -0.016212170161471 0)
(1.0081330811753 -0.016875631241174 0)
(1.0088926828258 -0.017568049344925 0)
(1.0096438123224 -0.018188249077008 0)
(1.0104903875893 -0.01888507823451 0)
(1.0112784513451 -0.019428625864606 0)
(1.0122375809575 -0.020161424939305 0)
(1.0130278780253 -0.02056078669655 0)
(1.0141646642669 -0.021410370722582 0)
(1.0000011091562 -0.00044729845835399 0)
(1.00003623748 -0.0013214479626769 0)
(1.0001025311131 -0.0021944871579855 0)
(1.000201777918 -0.0030706739548238 0)
(1.0003347295016 -0.0039461230855621 0)
(1.0005010529996 -0.0048158639103443 0)
(1.0006998800916 -0.0056776135944953 0)
(1.0009306913254 -0.0065320181625939 0)
(1.0011931122278 -0.0073804563559575 0)
(1.0014874093581 -0.0082244062410567 0)
(1.0018135032839 -0.0090643079151547 0)
(1.002172172254 -0.009901201225066 0)
(1.0025631132518 -0.010734626495743 0)
(1.0029877663727 -0.011565685893115 0)
(1.003445043955 -0.012391890927603 0)
(1.003937590331 -0.013214744071019 0)
(1.0044623454781 -0.014028708338271 0)
(1.0050245790321 -0.014838943818805 0)
(1.0056169930084 -0.015635372084773 0)
(1.0062510611979 -0.016432346785943 0)
(1.0069103122685 -0.017208106582943 0)
(1.0076202034 -0.017995648594234 0)
(1.0083437364722 -0.018744111895001 0)
(1.0091370793472 -0.019528283496729 0)
(1.0099177020559 -0.020231160209115 0)
(1.0108090900376 -0.021025045236347 0)
(1.0116287935568 -0.021643522832878 0)
(1.012649829499 -0.022483714086598 0)
(1.0134683880861 -0.02293892841137 0)
(1.0146984736542 -0.023919250368961 0)
(1.0000011964109 -0.00048908130341612 0)
(1.0000366448171 -0.0014415893198001 0)
(1.000103331131 -0.0023930678511887 0)
(1.0002031758383 -0.0033487831367217 0)
(1.0003369914273 -0.0043037291340946 0)
(1.0005044036713 -0.0052518049377674 0)
(1.0007044521312 -0.0061905192532048 0)
(1.0009365976258 -0.0071210800335912 0)
(1.0012004895706 -0.0080455685546615 0)
(1.001496526299 -0.0089660338799612 0)
(1.0018247239252 -0.009883207296858 0)
(1.0021860903343 -0.010798420749738 0)
(1.0025804107639 -0.011711282238278 0)
(1.0030094754416 -0.012623133239536 0)
(1.0034721946606 -0.013531213770824 0)
(1.0039717592503 -0.014437235961031 0)
(1.0045048365525 -0.015334942479705 0)
(1.0050776527869 -0.016230213481934 0)
(1.0056820276247 -0.017111729216041 0)
(1.0063313575223 -0.017995909578325 0)
(1.0070069212571 -0.018858242451712 0)
(1.0077382830244 -0.01973636135119 0)
(1.0084830420204 -0.020572593866919 0)
(1.0093063016473 -0.021452096539209 0)
(1.010112996041 -0.022241663778058 0)
(1.0110462158639 -0.023137686333826 0)
(1.0118951051292 -0.023836105992781 0)
(1.0129763263293 -0.024790459755586 0)
(1.0138219796058 -0.025306884992405 0)
(1.0151457886181 -0.026426943881294 0)
(1.000001278053 -0.00052882715369963 0)
(1.0000366082731 -0.001555081886032 0)
(1.0001028423626 -0.0025804494990663 0)
(1.0002020324688 -0.0036113056694561 0)
(1.000335051493 -0.004641395217163 0)
(1.0005014839037 -0.0056633847740511 0)
(1.0007002810343 -0.0066745959436353 0)
(1.0009308903264 -0.0076769037927148 0)
(1.0011929981036 -0.0086732099558951 0)
(1.001487147018 -0.0096662208393356 0)
(1.0018134694858 -0.010657019303057 0)
(1.0021732190379 -0.011647270579588 0)
(1.0025663000917 -0.012636693202707 0)
(1.0029948709243 -0.013626894465705 0)
(1.0034578851536 -0.01461487383082 0)
(1.0039590944052 -0.015602555752752 0)
(1.0044949607797 -0.01658299261246 0)
(1.0050726692021 -0.017562786668871 0)
(1.0056832628954 -0.018529443504506 0)
(1.0063420361842 -0.019501465303431 0)
(1.0070281893687 -0.020451688548715 0)
(1.0077753125459 -0.021422389581969 0)
(1.0085358817017 -0.022349166552485 0)
(1.0093837383194 -0.02332755139558 0)
(1.0102117456457 -0.024208102958969 0)
(1.0111821851441 -0.025211459706495 0)
(1.0120565692472 -0.025995483108034 0)
(1.013194448341 -0.027070964309054 0)
(1.0140651253507 -0.027655126804122 0)
(1.0154810073557 -0.028924024465298 0)
(1.0000013513205 -0.00056617449188053 0)
(1.0000360864971 -0.0016608994560732 0)
(1.0001009526587 -0.0027549434112044 0)
(1.0001981231563 -0.0038558811083975 0)
(1.000328529363 -0.0049560910951056 0)
(1.0004917153729 -0.0060469167040135 0)
(1.000686549329 -0.0071255163354442 0)
(1.0009124700671 -0.0081945316866783 0)
(1.0011692114626 -0.0092577966467202 0)
(1.001457468553 -0.010318755887371 0)
(1.0017775085163 -0.011378904695199 0)
(1.0021308401678 -0.012440281151892 0)
(1.0025175163013 -0.013502763047362 0)
(1.0029400717979 -0.014568248006608 0)
(1.0033975510822 -0.015633539719811 0)
(1.0038942673816 -0.016700772884873 0)
(1.0044265560611 -0.017762366908435 0)
(1.0050025400576 -0.018825630770176 0)
(1.0056126214501 -0.019877011430264 0)
(1.0062739233266 -0.020937059912918 0)
(1.0069638062973 -0.021976156359839 0)
(1.0077197110801 -0.023041109431875 0)
(1.008489416736 -0.024061066380114 0)
(1.0093551079525 -0.025141680986277 0)
(1.0101983481446 -0.02611765163127 0)
(1.0111997696541 -0.027233461365677 0)
(1.0120946860054 -0.028109301000662 0)
(1.0132838591751 -0.029312855754404 0)
(1.0141764859175 -0.029972445852702 0)
(1.0156806661082 -0.031399122862293 0)
(1.0000014148509 -0.00060079797802655 0)
(1.0000350544954 -0.0017581357303931 0)
(1.0000975945209 -0.0029150622347679 0)
(1.0001913158544 -0.0040804263642059 0)
(1.0003172023155 -0.0052451360464707 0)
(1.0004747579442 -0.006399133263959 0)
(1.0006627731315 -0.0075394390560042 0)
(1.0008806809454 -0.0086695529440492 0)
(1.0011282707333 -0.0097943439703602 0)
(1.0014063919195 -0.010918067900712 0)
(1.0017154599625 -0.012042691781373 0)
(1.0020572408384 -0.013170662706858 0)
(1.0024319617531 -0.014302071653079 0)
(1.0028425323672 -0.015439128059763 0)
(1.0032881345682 -0.016578498682754 0)
(1.0037736291052 -0.017722520281707 0)
(1.0042953101461 -0.018863065748371 0)
(1.0048621946829 -0.020008115271574 0)
(1.0054642024408 -0.021143227345976 0)
(1.0061201731324 -0.022290912008001 0)
(1.0068059236087 -0.023419395479185 0)
(1.0075624838311 -0.02457977522257 0)
(1.0083334902108 -0.025695250876358 0)
(1.0092088913758 -0.026881047675369 0)
(1.010060005633 -0.027956851239223 0)
(1.0110845874296 -0.029189937656107 0)
(1.0119937745277 -0.030164224108117 0)
(1.0132270366965 -0.031502534263889 0)
(1.0141374329205 -0.032246361487574 0)
(1.0157239772272 -0.033839285119987 0)
(1.0000014665624 -0.00063242561927892 0)
(1.0000335047309 -0.0018460505096466 0)
(1.0000927522801 -0.0030595943343933 0)
(1.0001815784627 -0.0042832383230451 0)
(1.0003010126189 -0.0055063298801452 0)
(1.0004505178901 -0.0067173455441395 0)
(1.0006288114446 -0.0079131953445965 0)
(1.0008353211168 -0.0090983169839194 0)
(1.0010698961033 -0.010278706211848 0)
(1.0013335362188 -0.011459492791074 0)
(1.0016268133735 -0.01264317172155 0)
(1.0019517431693 -0.01383263007813 0)
(1.0023087471024 -0.015028229413728 0)
(1.0027010964755 -0.016232507777419 0)
(1.0031281542842 -0.017442067637645 0)
(1.003595299099 -0.018659432137608 0)
(1.0040988722439 -0.019876044112235 0)
(1.0046487172722 -0.021100496234843 0)
(1.0052344472877 -0.022317686589066 0)
(1.0058764650359 -0.023551930373755 0)
(1.0065493867386 -0.024769721419074 0)
(1.0072974881915 -0.026026050919117 0)
(1.0080609287608 -0.027238929555851 0)
(1.008936678849 -0.028532264651005 0)
(1.0097871017756 -0.029712116334304 0)
(1.0108255106631 -0.031066765984278 0)
(1.0117414051881 -0.032146383858528 0)
(1.0130097362596 -0.033625581188128 0)
(1.0139325198481 -0.034463505298456 0)
(1.0155933215988 -0.036230323869492 0)
(1.0000015058794 -0.00066084872416883 0)
(1.0000314462051 -0.0019240970303994 0)
(1.0000864564039 -0.0031876483659306 0)
(1.0001689730685 -0.0044630574452777 0)
(1.0002800595591 -0.0057380368320294 0)
(1.0004191362809 -0.006999547349909 0)
(1.0005848514492 -0.0082444136317841 0)
(1.0007766251267 -0.0094780789470453 0)
(1.0009943665982 -0.010707743509787 0)
(1.0012392156376 -0.011939462387744 0)
(1.0015119026799 -0.013176310147922 0)
(1.0018146766479 -0.014421638869087 0)
(1.0021481661672 -0.015676139804766 0)
(1.002515978044 -0.016942690166521 0)
(1.0029176939552 -0.018217912481256 0)
(1.0033591646755 -0.019504491768149 0)
(1.0038368668025 -0.020793586936519 0)
(1.0043613784206 -0.022094317884301 0)
(1.00492219445 -0.023391211401076 0)
(1.0055410835525 -0.024710159947959 0)
(1.0061918464459 -0.026016480920786 0)
(1.0069215781346 -0.027368484002059 0)
(1.0076677288788 -0.028680052724782 0)
(1.0085333871735 -0.030082473899128 0)
(1.009373467749 -0.031370222518495 0)
(1.010414974815 -0.032849908631603 0)
(1.0113287423639 -0.034041805931171 0)
(1.0126213421244 -0.035667160250876 0)
(1.013549850312 -0.03660991541334 0)
(1.0152746873646 -0.038557098896434 0)
(1.0000015314607 -0.00068592752710398 0)
(1.0000289040721 -0.0019919353353342 0)
(1.0000787837856 -0.0032986757731882 0)
(1.0001536484404 -0.004619100152403 0)
(1.0002545844061 -0.0059392278128328 0)
(1.0003809668312 -0.0072444680155998 0)
(1.0005313776511 -0.0085315835262837 0)
(1.0007052241722 -0.0098070763096051 0)
(1.0009024713719 -0.011079413113181 0)
(1.0011243820366 -0.012355612737321 0)
(1.001371840379 -0.013639373986815 0)
(1.0016473035254 -0.014934532259124 0)
(1.001951612574 -0.016242167404157 0)
(1.0022886719445 -0.017565500458043 0)
(1.0026583118482 -0.018901266917241 0)
(1.0030667916942 -0.020252279769201 0)
(1.0035108101459 -0.021609586454411 0)
(1.0040015593841 -0.022982720402216 0)
(1.0045286206024 -0.024356188537643 0)
(1.0051148719631 -0.025757146109511 0)
(1.0057337480678 -0.027150446504275 0)
(1.0064345990966 -0.02859691318217 0)
(1.007153119694 -0.030007752898477 0)
(1.0079973095885 -0.031519780136 0)
(1.008816554025 -0.032918772200953 0)
(1.0098491189852 -0.034525870850352 0)
(1.0107508150034 -0.035836891035896 0)
(1.0120551855335 -0.037612318848556 0)
(1.0129813270029 -0.038671697957446 0)
(1.0147580429637 -0.040803422738037 0)
(1.0000015436951 -0.00070759231362416 0)
(1.0000259166086 -0.0020494343326659 0)
(1.0000698470567 -0.0033924734980383 0)
(1.0001358270686 -0.0047510635908532 0)
(1.0002249504141 -0.0061094882674932 0)
(1.0003365445314 -0.0074515827786403 0)
(1.0004691280742 -0.0087740686832686 0)
(1.0006220879085 -0.010084545156894 0)
(1.0007954361315 -0.011392790926766 0)
(1.000990536348 -0.012706814554805 0)
(1.0012084146333 -0.014030974480396 0)
(1.0014517025118 -0.015369600881656 0)
(1.0017214498005 -0.016724215749958 0)
(1.0020218094517 -0.018098384670838 0)
(1.0023528828343 -0.019489051436171 0)
(1.0027212564238 -0.020899119698855 0)
(1.0031239379812 -0.02231971250431 0)
(1.0035725742413 -0.023760644469185 0)
(1.0040570735952 -0.025206798215166 0)
(1.0046010585236 -0.026686207856406 0)
(1.0051782030656 -0.028164105342244 0)
(1.0058392251221 -0.029702816116686 0)
(1.0065195279015 -0.031212694398753 0)
(1.0073299303608 -0.032833627199053 0)
(1.0081175514687 -0.034346671697676 0)
(1.0091275221177 -0.036081940888037 0)
(1.0100069788372 -0.037519135659479 0)
(1.0113080900546 -0.039446396641511 0)
(1.0122242931114 -0.040635226621813 0)
(1.014035216248 -0.042952880400854 0)
(1.000001542044 -0.00072584006604324 0)
(1.0000225328551 -0.0020966598807601 0)
(1.0000597906829 -0.0034691666168343 0)
(1.0001157898185 -0.0048591052236594 0)
(1.0001916174205 -0.0062489960416093 0)
(1.0002865508054 -0.0076210906937145 0)
(1.0003990462781 -0.0089720852113247 0)
(1.0005284607065 -0.010310698940348 0)
(1.0006748400014 -0.011648049759508 0)
(1.0008396228901 -0.012993150530984 0)
(1.0010239598609 -0.014351044962916 0)
(1.0012306176587 -0.015726566742587 0)
(1.0014608407493 -0.017121722851349 0)
(1.001718971209 -0.01854042483796 0)
(1.0020053928608 -0.019979907278339 0)
(1.0023269229428 -0.02144314035569 0)
(1.0026809643596 -0.022921491873623 0)
(1.0030794204351 -0.02442495178573 0)
(1.0035128040959 -0.025939139865698 0)
(1.0040050015021 -0.027492629208051 0)
(1.0045306961485 -0.029051830306972 0)
(1.0051407466849 -0.030679594009809 0)
(1.0057722680667 -0.032287297675103 0)
(1.0065358036874 -0.034015221087403 0)
(1.0072811916621 -0.035644340210861 0)
(1.0082528113131 -0.037506824153774 0)
(1.0091014311754 -0.03907720197331 0)
(1.0103785697206 -0.041155490117929 0)
(1.0112841079662 -0.042488703961299 0)
(1.0130959944853 -0.044987266519654 0)
(1.0000015274403 -0.00074072564461759 0)
(1.00001880438 -0.0021338484866255 0)
(1.0000487683803 -0.0035291662123181 0)
(1.0000938457887 -0.0049437880561426 0)
(1.0001550996885 -0.0063584591005851 0)
(1.0002317560496 -0.0077538482113025 0)
(1.0003222109972 -0.0091266353405375 0)
(1.0004257786836 -0.01048666722529 0)
(1.0005425206228 -0.011846409046437 0)
(1.0006739190039 -0.013215877432145 0)
(1.0008212237059 -0.014600812379962 0)
(1.0009872949183 -0.016006557525704 0)
(1.0011735509947 -0.017435635747189 0)
(1.0013844612303 -0.018892317373957 0)
(1.0016206850078 -0.020374185635746 0)
(1.0018891742041 -0.021884288939505 0)
(1.0021877807986 -0.023414345670742 0)
(1.0025284873562 -0.024974506050065 0)
(1.0029026131154 -0.026551335396078 0)
(1.0033339105826 -0.028173819513029 0)
(1.0037986388347 -0.029810027476051 0)
(1.0043468711089 -0.031522829998044 0)
(1.0049188826165 -0.033225851126774 0)
(1.0056226934363 -0.035058064489608 0)
(1.0063145108189 -0.03680365898598 0)
(1.0072321874904 -0.038791663659638 0)
(1.0080394540085 -0.04050050210972 0)
(1.0092732906794 -0.042728072579477 0)
(1.0101608593147 -0.044219199146713 0)
(1.0119513017966 -0.046894484003925 0)
(1.0000014981115 -0.00075235134940696 0)
(1.0000147786358 -0.002161371395555 0)
(1.0000369309354 -0.0035731020485097 0)
(1.0000702999422 -0.0050059772806936 0)
(1.0001159128779 -0.0064389805560457 0)
(1.0001729479403 -0.0078512119432678 0)
(1.0002397422095 -0.0092393322143358 0)
(1.000315549451 -0.010614303775081 0)
(1.0004004302255 -0.01198993481054 0)
(1.0004958746263 -0.013377233390774 0)
(1.0006032024999 -0.014782635217236 0)
(1.0007253106447 -0.016211983391828 0)
(1.0008637640205 -0.017668328181764 0)
(1.0010230877585 -0.019156308363197 0)
(1.0012042028014 -0.020673896829061 0)
(1.0014141072628 -0.02222426575462 0)
(1.0016511181707 -0.023799530085689 0)
(1.0019271814128 -0.025410091973182 0)
(1.002234469995 -0.027043462976849 0)
(1.0025964347652 -0.028729238735491 0)
(1.0029910058357 -0.030437044709499 0)
(1.0034672373995 -0.032230186479105 0)
(1.0039688260809 -0.034024297139042 0)
(1.0046008526353 -0.035957677755032 0)
(1.005226713011 -0.037817601088482 0)
(1.006076345002 -0.039929804801353 0)
(1.0068289507272 -0.041778646372838 0)
(1.008002423918 -0.044154020353547 0)
(1.0088592715488 -0.04581297541519 0)
(1.0106106082835 -0.048658733779003 0)
(1.0000014495747 -0.00076087534713869 0)
(1.0000105087528 -0.0021797323993218 0)
(1.0000244439061 -0.0036017783479433 0)
(1.000045476372 -0.0050467310807877 0)
(1.0000745813574 -0.0064918715915757 0)
(1.0001109152263 -0.0079147637509396 0)
(1.0001527691154 -0.009312033235673 0)
(1.0001992985339 -0.010695723373275 0)
(1.0002505444626 -0.012080967709882 0)
(1.0003079613027 -0.01347974416416 0)
(1.0003729331061 -0.014899192824994 0)
(1.0004483197641 -0.016345631301344 0)
(1.0005358285101 -0.017822649855306 0)
(1.000639904598 -0.019335223450887 0)
(1.0007617616509 -0.020881764750254 0)
(1.0009082623681 -0.022465559121091 0)
(1.0010783148029 -0.024079181706095 0)
(1.0012835698628 -0.025733331474173 0)
(1.0015172689597 -0.027416430812739 0)
(1.0018021933452 -0.029158989655226 0)
(1.0021181897434 -0.030931705496574 0)
(1.0025129106427 -0.032799535883995 0)
(1.0029335957882 -0.034678175432652 0)
(1.0034823666435 -0.036709060998718 0)
(1.0040295375973 -0.038676893176404 0)
(1.0047982011275 -0.040913581701803 0)
(1.0054817932431 -0.042896553887435 0)
(1.0065804752996 -0.045423588589096 0)
(1.0073903010718 -0.047246538418384 0)
(1.0090855871417 -0.050256715027506 0)
(1.0000013744254 -0.00076658401335586 0)
(1.0000061412021 -0.0021898050783986 0)
(1.0000116447358 -0.0036164589043669 0)
(1.0000198997798 -0.005067583197599 0)
(1.0000318293266 -0.0065189524278487 0)
(1.0000466443708 -0.00794658218155 0)
(1.0000626192338 -0.0093470494130172 0)
(1.0000787559629 -0.010733429793448 0)
(1.0000950501813 -0.012122146024967 0)
(1.0001128493207 -0.013526117817452 0)
(1.0001336164297 -0.014953211688056 0)
(1.0001600772962 -0.016410167349806 0)
(1.0001941533608 -0.017901166830157 0)
(1.0002399884652 -0.019431463580859 0)
(1.0002992778672 -0.021000081303121 0)
(1.00037832764 -0.022610290464165 0)
(1.0004771330727 -0.024255384514249 0)
(1.0006061961489 -0.0259460432201 0)
(1.0007609179183 -0.027671955884012 0)
(1.0009616822446 -0.029464176449055 0)
(1.0011924761024 -0.031294729740154 0)
(1.0014962937654 -0.033230632410041 0)
(1.0018280313872 -0.035186142682387 0)
(1.0022811951181 -0.03731032379008 0)
(1.0027398796073 -0.039375890225786 0)
(1.0034118600555 -0.0417409218628 0)
(1.0040163915726 -0.043840251665858 0)
(1.0050240824985 -0.046545727515964 0)
(1.0057824831015 -0.048491856899603 0)
(1.0073936271404 -0.051720030956313 0)
(1.0000012492727 -0.00076996940734109 0)
(1.0000019342296 -0.002193334088202 0)
(0.99999916190794 -0.0036198235100289 0)
(0.99999437383035 -0.005071892508886 0)
(0.99998861343013 -0.0065243391327785 0)
(0.9999813649949 -0.0079514253118011 0)
(0.99997085399073 -0.0093497043186221 0)
(0.99995588477505 -0.010733301977551 0)
(0.9999363674152 -0.012119890212234 0)
(0.99991345381487 -0.013523310931459 0)
(0.99988871435086 -0.014952208837725 0)
(0.99986464047138 -0.016413691711069 0)
(0.99984341916372 -0.017912568465851 0)
(0.9998286138841 -0.019454309658851 0)
(0.99982267656641 -0.021038858280737 0)
(0.99983084355723 -0.022669379207803 0)
(0.99985503843937 -0.024340564674345 0)
(0.99990327167677 -0.026062496572218 0)
(0.99997518237936 -0.027827419989689 0)
(1.0000852418423 -0.029665265123656 0)
(1.0002268301025 -0.031552025999009 0)
(1.0004297060612 -0.033553532839255 0)
(1.0006694684723 -0.035586800779159 0)
(1.0010105677667 -0.037805574961021 0)
(1.001381513431 -0.039969444532174 0)
(1.0019273271196 -0.042478261553174 0)
(1.0024622456892 -0.044675541891112 0)
(1.0033295847965 -0.047639976135418 0)
(1.0040729307812 -0.0496028666095 0)
(1.0055517345521 -0.05338301423741 0)
(1.0000009310562 -0.00077233202871318 0)
(0.99999739820493 -0.0021942702741471 0)
(0.99998674286083 -0.003619748255957 0)
(0.99996867683603 -0.0050726442648972 0)
(0.99994477515123 -0.0065266916906179 0)
(0.99991524696939 -0.0079537962764469 0)
(0.99987793767387 -0.0093501276953083 0)
(0.99983146836699 -0.010730933552776 0)
(0.9997756616343 -0.012115599178769 0)
(0.99971137673908 -0.013519109173558 0)
(0.99964025970501 -0.014950975105131 0)
(0.99956461967417 -0.016418696228784 0)
(0.99948684432409 -0.017927819152982 0)
(0.99940977852201 -0.01948403255914 0)
(0.99933649571499 -0.021088466756911 0)
(0.99927100153337 -0.022743980175675 0)
(0.99921726092928 -0.02444749517059 0)
(0.9991804638391 -0.026207860422257 0)
(0.99916522804886 -0.028022423590298 0)