/*--------------------------------*- C++ -*----------------------------------*\
| =========                 |                                                 |
| \\      /  F ield         | OpenFOAM: The Open Source CFD Toolbox           |
|  \\    /   O peration     | Version:  2112                                  |
|   \\  /    A nd           | Website:  www.openfoam.com                      |
|    \\/     M anipulation  |                                                 |
\*---------------------------------------------------------------------------*/
FoamFile
{
    version     2.0;
    format      ascii;
    arch        "LSB;label=32;scalar=64";
    class       volScalarField;
    location    "6";
    object      p;
}
// * * * * * * * * * * * * * * * * * * * * * * * * * * * * * * * * * * * * * //

dimensions      [0 2 -2 0 0 0 0];

internalField   nonuniform List<scalar> 
22000
(
0.052189319622505
0.052167985672159
0.052124183326645
0.052056943304138
0.051965732674334
0.051850485173259
0.051711381719779
0.051548621659407
0.051362348987394
0.051152670237155
0.050919667195504
0.05066340765655
0.050383957712653
0.050081400010124
0.0497558211842
0.049407318067819
0.049035975458963
0.048641906309987
0.048225211065011
0.047786056140179
0.047324564468266
0.046840984947461
0.046335440716351
0.045808306616715
0.045259645030673
0.044690055873414
0.044099414427251
0.043488753937884
0.04285745197282
0.042207370969547
0.052584777050476
0.052562581929178
0.052517867639824
0.052449682610448
0.052357464185492
0.05224110678173
0.052100743653495
0.051936539967706
0.051748621997766
0.051537079586877
0.051301968063576
0.051043326558973
0.050761195886819
0.050455646004432
0.050126755948445
0.049774626781773
0.049399341156092
0.049001019350358
0.048579747899748
0.048135697210606
0.047668957241301
0.047179785984292
0.046668246643305
0.046134744880355
0.045579238585711
0.045002398830585
0.044403902263053
0.043784887763277
0.043144314115102
0.042484050258042
0.053306870077217
0.053284205430663
0.053238589727126
0.053169155731284
0.053075405239571
0.052957242509124
0.052814778327021
0.052648148696536
0.052457451276236
0.052242750872764
0.052004079489926
0.051741456953213
0.051454899826099
0.051144454985824
0.050810168722998
0.050452118220928
0.050070348028267
0.049664959598834
0.049235992022596
0.048783607686461
0.048307831961157
0.047808937924391
0.047286888163452
0.046742155977539
0.046174527396149
0.045584839929384
0.044972450341082
0.044338805233438
0.043682174240423
0.043004687342528
0.054304107789028
0.054281022609363
0.054234559397616
0.054163860973181
0.05406845185785
0.053948245230118
0.053803338890081
0.05363383891235
0.053439804013432
0.0532212621072
0.052978209306157
0.052710633474059
0.052418511993792
0.052101856177165
0.051760664646534
0.051394979939475
0.051004791487124
0.050590172828206
0.050151095164242
0.04968770736286
0.049199942547071
0.048688093569833
0.048151983303243
0.047592173691314
0.047008210519421
0.046401146252305
0.045769885378334
0.045116242457916
0.044437500334442
0.043736009763221
0.055531567903671
0.055508084861948
0.055460812589624
0.055388883962389
0.055291821928308
0.055169530452086
0.055022086468736
0.05484956548232
0.054651986301156
0.054429334916319
0.054181561375976
0.053908610030902
0.053610405279443
0.053286910207201
0.052938058924363
0.05256384469833
0.052164180537467
0.051739097147394
0.051288472464963
0.050812429806277
0.05031077931721
0.049783827455352
0.049231215031499
0.048653599458455
0.0480502236908
0.047422381277967
0.046768423846276
0.046090581150788
0.045384972823826
0.044654179532467
0.056949302924653
0.056925475601154
0.056877501866786
0.056804498431088
0.056705978338925
0.056581827815834
0.056432096597217
0.056256823851593
0.056055979617787
0.05582949601488
0.055577262329421
0.055299164564439
0.054995056912508
0.054664837440887
0.054308355150235
0.053925536080907
0.053516193663226
0.05308029831343
0.052617608585148
0.052128206506315
0.051611749145602
0.051068545407745
0.050498018536903
0.049900918641609
0.049276139789718
0.048625227697961
0.047945922176284
0.047240878982792
0.046504954047186
0.045740868817281
0.058521558399545
0.058497491568596
0.058449030244073
0.058375273608125
0.058275720364068
0.058150231438433
0.057998818815297
0.057821472896854
0.057618101239419
0.057388568471872
0.057132688326456
0.056850273401324
0.056541090081434
0.056204953828096
0.055841606937429
0.055450888066868
0.055032486008567
0.054586290089874
0.054111912202788
0.053609372675155
0.053078146163037
0.052518524632546
0.051929681835165
0.051312443998933
0.050665324253808
0.049990101510921
0.049283873875496
0.04854967334707
0.047781056627627
0.046980686861234
0.060216072418749
0.060191925288038
0.060143294618172
0.060069263404816
0.059969313290347
0.059843271927605
0.059691102597105
0.05951273498586
0.059308001233268
0.059076684477347
0.058818506492811
0.058533189009329
0.05822039056922
0.057879823933068
0.057511101531881
0.05711395230319
0.056687913335554
0.056232767751488
0.055747950952623
0.055233394757354
0.054688361711134
0.054113097607468
0.053506500696989
0.052869438296114
0.052200024165312
0.051500220816238
0.050766490786114
0.050002133703788
0.049199451681294
0.048360745243966
0.062003528303989
0.061979506387506
0.061931119519302
0.061857437082096
0.061757921260445
0.061632359376182
0.06148065553875
0.061302666443642
0.061098135376894
0.060866749798096
0.060608123532051
0.060321868799936
0.060007514307535
0.05966464707444
0.059292724096311
0.058891339240613
0.058459849114537
0.057997902570019
0.057504726707782
0.056980132157618
0.056423138975284
0.055833906354346
0.055211035389245
0.054555379579678
0.053864652956116
0.053140915438539
0.052380037405228
0.0515854176669
0.050748230141657
0.049870003259927
0.06385722243226
0.063833573607098
0.063785926933422
0.063713343692675
0.063615266488934
0.063491435402485
0.063341684997161
0.06316578671994
0.062963381789091
0.062734047292915
0.062477273265754
0.062192544052829
0.061879237761103
0.06153679091491
0.061164477934466
0.060761729347797
0.060327689753923
0.059861842935513
0.059363172295844
0.058831331106156
0.058265062990107
0.057664390191052
0.057027600837588
0.056355454690921
0.055645287402308
0.054899128609959
0.054112341307036
0.053288195658075
0.052416929445018
0.051498786358153
0.065752870267502
0.065729875929524
0.065683536075753
0.065612910145524
0.06551742094744
0.065396755522614
0.065250669650522
0.065078838219171
0.064880788412941
0.064655973136963
0.064403743793374
0.064123438675398
0.063814265260815
0.063475485625934
0.0631061648178
0.062705539685966
0.062272509351321
0.06180635817883
0.061305787814163
0.06077025281437
0.060198185943752
0.059589410324853
0.058941889864757
0.058256185686618
0.057529296308463
0.056763050671256
0.055952424262873
0.055100271748167
0.054196155202738
0.053238425638989
0.067668503362451
0.06764647160317
0.067602057083728
0.067534326673031
0.067442685429306
0.067326762069727
0.06718622527759
0.067020644086294
0.066829421573712
0.066611874966328
0.066367203608836
0.066094583449042
0.065793032483519
0.065461615014708
0.065099162407754
0.06470468604292
0.064276809777102
0.063814575917387
0.06331637155281
0.062781398774353
0.062207746949081
0.061594969647962
0.060940690000733
0.060245155247967
0.059505071745667
0.058721854694036
0.057890263383157
0.057012367610003
0.056077372650227
0.055081060488034
0.069584417065193
0.069563671279876
0.06952183457366
0.069457991143823
0.06937153051049
0.069262019867935
0.069129034579009
0.068972030878698
0.068790280467538
0.068582956508169
0.068349095695544
0.068087698296287
0.067797576364936
0.067477576024346
0.067126272087517
0.066742420880073
0.066324342982069
0.065870794580735
0.065379818006295
0.064850297893176
0.064279957545547
0.063667985434147
0.063011662381949
0.062310779247653
0.061561799844478
0.060765491886856
0.059916571365157
0.059015907419617
0.058052727017946
0.057019473149207
0.071483146036221
0.07146401647914
0.071425422482878
0.07136647852159
0.071286563353584
0.07118518043285
0.071061807707733
0.070915784817289
0.070746248360556
0.0705522227918
0.070332575556535
0.070086121699895
0.069811455027063
0.069507186768864
0.069171616301357
0.06880321813573
0.068399984349318
0.067960342966548
0.067481963270419
0.066963343664858
0.066401822199323
0.065796110603836
0.065143158474456
0.064442125269625
0.063689297030793
0.062884530458596
0.062022667104703
0.061102936895156
0.060114972098062
0.059047026248275
0.073349441025098
0.073332253290154
0.073297560776457
0.073244521238552
0.073172507669685
0.073080960513332
0.072969259339113
0.072836626630792
0.072682064346444
0.072504448121424
0.07230247447135
0.07207476830606
0.071819698329644
0.071535628896542
0.071220571277378
0.070872695121755
0.070489645273417
0.070069480355553
0.069609475529652
0.069107671288216
0.068561005693181
0.067967594282096
0.067324065160341
0.066628759546054
0.065877847706726
0.065069991635856
0.064200327621858
0.063265972860407
0.062257349140749
0.061157604893345
0.075170236075358
0.075155302915068
0.075125143951285
0.075078975725238
0.075016172742165
0.074936114271077
0.07483808316372
0.074721188132046
0.074584301545421
0.074426155016479
0.074245277921639
0.074040105554747
0.073808781269698
0.073549416370413
0.073259729401894
0.072937566930083
0.072580217257284
0.07218533025887
0.071749775904953
0.071271064414431
0.070745726548154
0.070171160976415
0.069543678373486
0.068860616784377
0.068118069073196
0.067313214838692
0.06644164745665
0.065497859364166
0.064473470206415
0.063345538465163
0.076934593815781
0.076922204547462
0.076897167374814
0.076858773370794
0.076806407098635
0.076739391179967
0.07665691559044
0.076557981618784
0.076441341668038
0.076305593152565
0.076149108010486
0.075970138548625
0.075766609934662
0.07553638082246
0.075276881633421
0.074985624033558
0.074659541658129
0.074295841098701
0.073890987345187
0.073441892180111
0.072944677643272
0.072395915661142
0.071791592226321
0.071127874698455
0.070400791827378
0.069605745027897
0.068738944490267
0.06779168411637
0.06675721868536
0.065605483176815
0.078633624912186
0.078624039842554
0.078604653693672
0.078574850454742
0.078534033680789
0.078481474174365
0.078416277248975
0.07833734833617
0.078243333153543
0.078132707794005
0.078003701261237
0.077854395762042
0.077682513493994
0.077485668681335
0.077261017365872
0.077005733671449
0.076716408131433
0.076389780953828
0.076021919581014
0.075609084219341
0.07514698718645
0.07463128258357
0.074057620292356
0.073420842082285
0.072716924914012
0.071939180755664
0.071084596189731
0.070140661961921
0.069102667668456
0.067932373585386
0.080260378339399
0.080253823332208
0.08024054894949
0.080220049596972
0.080191756686414
0.080154896010576
0.080108498382256
0.080051388658236
0.079982126040171
0.079899083786767
0.079800366009945
0.079683900573759
0.079547227824333
0.079387734431503
0.079202325154874
0.078987846397789
0.078740564334224
0.07845674831767
0.078132077533618
0.07776213492149
0.077342216079921
0.076866996784902
0.076331770570812
0.07572992278946
0.07505738200353
0.074305084608906
0.073470881964912
0.072537912634228
0.071503796756504
0.070321131759628
0.081809710572729
0.081806371496817
0.081799588783211
0.08178898770651
0.081774040761215
0.081753936541896
0.081727637663455
0.081693898753216
0.08165121507395
0.081597886232511
0.08153192217271
0.08145111735155
0.081352853316149
0.081234310284721
0.081092172966783
0.080922983077974
0.080722707847289
0.080487162976922
0.080211648567752
0.079891081868189
0.079520322622397
0.079093065508967
0.078604187444122
0.0780455799671
0.077413023693795
0.076694988105764
0.075890039043064
0.074976608499864
0.073954526479577
0.072766262265001
0.083278116870284
0.083278154417483
0.083278176580057
0.083277942639311
0.083276985590653
0.083274482701572
0.08326934823948
0.083260273229526
0.083245694857574
0.083223856350664
0.083192713298762
0.083149964306448
0.083092868747804
0.083018425168275
0.082923136626716
0.082803270243962
0.082654530980702
0.08247231274249
0.082251552312527
0.081986545116973
0.081671684149581
0.081299761828906
0.080865102661201
0.080358263562327
0.079774508348506
0.079100233887083
0.078334019413183
0.077450288744329
0.076449623177925
0.075263506802426
0.084663528705511
0.084667079600554
0.084674180267254
0.084684701366681
0.084698232158345
0.084713954873678
0.084730771601077
0.08474735091111
0.084762104379744
0.08477322315763
0.084778614178258
0.084775901512151
0.084762277576978
0.084734599150201
0.084689240948515
0.084622221939539
0.08452904479644
0.08440470653496
0.084243830777201
0.084040128369844
0.083787529262165
0.083478028176531
0.083105236124613
0.082658734644653
0.082132562285485
0.081512113344728
0.080793842970692
0.079951702823062
0.07898232954186
0.077811948473206
0.085965177838441
0.085972253937462
0.085986558417969
0.08600811530846
0.086036570155869
0.086071055477488
0.086110425367441
0.086153340949541
0.086198271413488
0.086243434709932
0.086286705043098
0.086325617392079
0.086357335702187
0.086378622061761
0.086385787651437
0.086374615430487
0.086340488447318
0.086277994711095
0.086181551255084
0.086044233416113
0.085859649002102
0.085618922060649
0.085315045056698
0.084936732120941
0.084476464434343
0.083919674563526
0.083257614249749
0.082468342500209
0.081533948046667
0.080399406045009
0.087183702243659
0.087194142228554
0.087215313338827
0.087247657800386
0.08729107688994
0.087344617442696
0.087406979446439
0.087476761953498
0.087552514045185
0.087632463624248
0.087714456776271
0.087795965269335
0.087874167674982
0.087945795003773
0.088007185317459
0.088053912053949
0.08808131461228
0.088083528520952
0.088054905447214
0.087987696102181
0.087875497059204
0.087708022895064
0.087478452232053
0.087173309277689
0.086785661695987
0.086298244448924
0.085701671790999
0.084971689286298
0.084072519761106
0.082966916602842
0.088321201269915
0.088335145943039
0.08836263350093
0.088404879543698
0.088462274490534
0.088533956779549
0.088618471080148
0.088714272448553
0.08882061162496
0.088935512540172
0.089056529595505
0.089180967723816
0.089305934400246
0.089428096222834
0.089543917976274
0.089648977036792
0.089738688861584
0.089806856526571
0.089847929964955
0.089853380124596
0.089817083664596
0.089726876104636
0.089577135907571
0.08935006172314
0.089043362612904
0.088629397682475
0.088114232412933
0.087450349434512
0.086628696352274
0.085504151862381
0.041578289777284
0.040974196988927
0.04035446514607
0.039720033746088
0.039071827811529
0.038410575466929
0.03773680800424
0.037050956963619
0.036353452959118
0.035644777129719
0.034925475697123
0.034196154090603
0.033457462305709
0.032710075855253
0.031954685006579
0.03119199449584
0.030422731232058
0.029647648292184
0.028867524251805
0.028083159141493
0.027295377716133
0.026505036552225
0.025713050765447
0.024920414223578
0.024128222978114
0.023336887992127
0.0225471171785
0.021759866846014
0.020976171844982
0.020197046297547
0.019423430269257
0.018656177313741
0.017896074774889
0.017143873117372
0.016400301555588
0.015666067426585
0.014941852748724
0.01422831380686
0.013526082727015
0.012835773008767
0.012157974088543
0.011493266101353
0.010842189668661
0.010205291599757
0.0095830335354215
0.0089759355820517
0.0083843100653279
0.0078086787574369
0.007248965107015
0.0067056670416756
0.041847997915631
0.041239540357852
0.040613378715531
0.039971854495283
0.039316709406624
0.038648766573992
0.037968244283212
0.03727521996972
0.036569903180041
0.035852685763183
0.035124098309244
0.0343847562364
0.03363531460095
0.03287643649872
0.032108788572801
0.03133305977054
0.030549982297953
0.029760337679091
0.028964947852722
0.028164664930643
0.027360359026891
0.026552905604143
0.02574313798357
0.02493179523347
0.024119439743658
0.023307750818565
0.022497990054383
0.021691099733029
0.020887926656358
0.020089319815913
0.019296166506685
0.018509387434853
0.017729907078679
0.016958624746957
0.016196400507972
0.015444058668396
0.01470238667834
0.013972144393391
0.01325404825131
0.012548797994193
0.011857030682788
0.011179397983851
0.01051643294528
0.0098687717337116
0.0092367772650648
0.0086211737227011
0.0080220055592796
0.0074404223776469
0.006875971198035
0.0063313665126246
0.042353940765724
0.041730064583425
0.0410836670339
0.040420374132474
0.03974389103696
0.039055389240838
0.038354555847818
0.037640860120821
0.036914185287714
0.036174859761233
0.035423481738736
0.034660762804933
0.033887426665279
0.033104158646646
0.032311615133495
0.031510473136927
0.030701473040742
0.029885421465406
0.029063168059497
0.028235584502308
0.027403561579427
0.026568017923335
0.025729927136527
0.024890355782812
0.024050537435597
0.023211320333987
0.022373689658678
0.021538682457004
0.020707330303506
0.019880660880264
0.019059701004637
0.018245468736432
0.017438958928089
0.016641133553693
0.015852909333139
0.015075162690452
0.01430871493739
0.01355435879281
0.0128128154215
0.012084808114838
0.01137094104995
0.010671900177618
0.0099881224032247
0.0093203493487153
0.0086687216965801
0.0080343106501638
0.0074166775532554
0.006818049447115
0.0062371007654097
0.0056801404992313
0.043063025212525
0.042413288423221
0.041734240198891
0.041036733661279
0.040327403144187
0.03960782716336
0.038876813380518
0.038132898263405
0.037375495760952
0.036604864719107
0.035821710033772
0.035026868686775
0.034221134396722
0.033405189265458
0.032579639397514
0.031745111178246
0.030902324580331
0.030052095821118
0.029195297115055
0.028332826324876
0.027465605601674
0.026594592232199
0.025720779721223
0.024845182884491
0.023968802703057
0.023092678138806
0.02221786542812
0.021345454551397
0.02047655792883
0.019612289107092
0.018753747468613
0.017902012418463
0.017058136633338
0.016223143583465
0.015398010378327
0.01458367729349
0.013781014875328
0.012990871179715
0.012213987174194
0.011451136612675
0.010702893606199
0.0099700127711628
0.0092527983806837
0.0085521426713285
0.0078677985904602
0.0072012416649253
0.0065510567391967
0.0059207706754631
0.0053072473234674
0.0047222802340313
0.043953316862173
0.043269284428394
0.042547211804225
0.041805077297825
0.041053340303305
0.040293977095034
0.039524524517952
0.038742247701357
0.037945953530455
0.037135836471699
0.03631275580934
0.035477704148537
0.034631543665378
0.033774929578632
0.032908386164981
0.0320324615389
0.031147837264552
0.030255325344336
0.029355802143481
0.028450161135423
0.027539310463988
0.026624188112713
0.025705768956566
0.024785061583892
0.023863108412834
0.022940990355072
0.022019820044141
0.021100735547038
0.020184893387184
0.019273460064669
0.018367603564604
0.017468484899007
0.016577244052233
0.015694994944717
0.014822800648494
0.013961689267712
0.013112603075882
0.012276474157207
0.01145409292017
0.010646334009393
0.0098537950860609
0.0090774168251424
0.0083174850061567
0.0075753295448886
0.006850582998078
0.0061458756860852
0.005459448341761
0.0047980369443313
0.0041582805580996
0.0035613077017105
0.045007859165946
0.04428225240701
0.04350781860522
0.042711626337036
0.041908853733086
0.041101844683749
0.040286467891455
0.039458390992051
0.038615699623222
0.03775855168568
0.036888021011321
0.036005292117782
0.035111299842485
0.03420665372093
0.033291769150914
0.032367092927994
0.031433252250685
0.030491043425249
0.029541334705219
0.028585000468085
0.027622922484256
0.026656016679088
0.025685246979542
0.024711622862851
0.023736194383867
0.022760048245718
0.021784308811873
0.020810136558071
0.019838726791037
0.018871302742772
0.017909105873746
0.016953382186276
0.01600536291733
0.015066254826501
0.014137207749129
0.013219334830085
0.012313643477689
0.011421139405752
0.01054264348212
0.0096791095664469
0.008831106180646
0.0079997054025398
0.0071850216407481
0.0063886866210828
0.005609777888238
0.0048517305468563
0.00411128721734
0.0033975802868012
0.0027043165889668
0.0020618225162007
0.046212257890799
0.045438580157358
0.04460320642421
0.04374435437803
0.042882793778719
0.042021150040233
0.041153190113666
0.040272659112466
0.039376831056632
0.038465877747526
0.037541157176131
0.036604076421098
0.035655634351817
0.034696368278102
0.033726555327042
0.032746516067775
0.03175680632496
0.030758193278583
0.029751522104772
0.028737631134611
0.027717357897386
0.026691577164896
0.025661219326563
0.024627265778585
0.023590742258519
0.022552718543825
0.021514314532944
0.020476703552625
0.019441114686572
0.018408823762483
0.017381143512474
0.016359403338092
0.015344927195518
0.014339016192835
0.013342910228043
0.012357806853868
0.011384777984832
0.010424897915111
0.009479008641087
0.0085481353040003
0.0076327944452302
0.0067341971093225
0.0058522454582453
0.0049889585483818
0.00414279961432
0.0033183648578988
0.0025108961530307
0.0017332188005453
0.00097667162403909
0.00028526436973685
0.047554556942334
0.046726971298227
0.045822706085919
0.04489330621874
0.043965988826214
0.04304351296592
0.042117066141724
0.041178133403852
0.040223097720227
0.039252213435363
0.038267201295321
0.037269721045457
0.036260823099742
0.035240939124042
0.034210174684326
0.033168702008313
0.032116990846646
0.031055765317613
0.029985830057185
0.028907965302577
0.027822940154185
0.026731563297155
0.025634706206956
0.024533297586402
0.02342831745125
0.022320798891653
0.021211839279662
0.020102605231439
0.018994341627187
0.017888362263107
0.016786042080876
0.015688787190253
0.014598013670781
0.013515116253957
0.012441430269041
0.011378239942734
0.010326689284449
0.0092879222517955
0.0082628086207587
0.0072524502969983
0.006257317542237
0.0052787911776027
0.0043165577468531
0.0033731322973031
0.0024463123064413
0.0015421753126142
0.00065424191538196
-0.00020006793348639
-0.0010323091350483
-0.0017816955597859
0.049024546429471
0.048137740325568
0.047157139568343
0.046149908038561
0.045150517751629
0.044161633736256
0.043171359454704
0.042168608358807
0.041148825218525
0.040112424733871
0.039061566477819
0.03799819055125
0.036923380737065
0.035837423497126
0.034740214931169
0.033631754517024
0.032512413506286
0.031382859137838
0.03024383290705
0.029096029759889
0.027940123282685
0.026776830187706
0.025606936974841
0.02443129166865
0.023250797892976
0.022066419066172
0.020879200771971
0.019690279544579
0.018500894856241
0.017312374786836
0.016126139146595
0.014943657715927
0.013766435092097
0.012595954892152
0.011433653105857
0.010280897770983
0.0091389156160064
0.008008918061594
0.0068918189442299
0.0057887991451175
0.0047003016651356
0.0036278988561736
0.0025710644829732
0.0015328953047483
0.00051044453674942
-0.00048845047498025
-0.0014723005871064
-0.0024181805700985
-0.0033411055254744
-0.0041597693983151
0.050613251993533
0.049662256863409
0.048598228403815
0.047506390338942
0.046429216530972
0.045368929688499
0.044309987131608
0.043238444914234
0.042148813329579
0.041041771172086
0.039919989232072
0.038785706254425
0.037640019422882
0.036483026877089
0.035314373735149
0.034133863604265
0.032941755136633
0.031738640264413
0.030525170409367
0.029301922228822
0.028069439177653
0.026828312694707
0.025579212234771
0.024322872664266
0.023060091750408
0.021791724446277
0.020518711464573
0.019242115647129
0.017963150838303
0.016683140011721
0.015403523667163
0.014125809245181
0.012851580244959
0.011582396060658
0.010319795202129
0.0090652173213057
0.007819984432875
0.0065853618134035
0.0053623312483769
0.0041521390601704
0.0029552330821368
0.0017733770704946
0.00060585068512363
-0.00054360759611129
-0.0016787568082751
-0.0027897276471395
-0.0038873791585627
-0.0049422476687906
-0.0059733702767675
-0.0068744086643065
0.052312611760714
0.051292695512175
0.050138422382973
0.048955636779846
0.047795460558551
0.046659214641335
0.045527130157611
0.044382168839406
0.043217958613872
0.042035561495589
0.040838226968541
0.039628496763917
0.038407441084224
0.037174918711097
0.035930288834645
0.034673141267106
0.033403608993978
0.032122186602372
0.030829401324425
0.02952567345816
0.028211376896775
0.026886935955431
0.025552860220049
0.024209720957149
0.022858162751423
0.021498906722431
0.020132755841357
0.018760631487309
0.01738365689895
0.016003111822181
0.014620436730087
0.013237144134169
0.011854872227783
0.010475226766754
0.0090998461008494
0.0077302142414388
0.0063677623895843
0.0050137783104206
0.0036693481205285
0.0023357460708446
0.0010134843987755
-0.00029551559203401
-0.0015921037657571
-0.0028718825500619
-0.0041394269937762
-0.0053825992516126
-0.0066148465221423
-0.0077990890217315
-0.0089588180636177
-0.0099575285242916
0.054115249467776
0.053021737745179
0.051770560587444
0.050490891305148
0.049242988715354
0.048026640582011
0.046817236553218
0.045594467786846
0.044351203956018
0.04308905737995
0.041811929004267
0.040522634331642
0.039222146564673
0.037910030319691
0.036585336946433
0.035247435995486
0.033896316358437
0.032532342113104
0.031155877260918
0.029767140261827
0.028366290513512
0.026953536610481
0.025529176039231
0.024093570927232
0.022647135626168
0.0211903676162
0.019723904131686
0.018248506491361
0.016765132385908
0.01527492506709
0.013779272698336
0.012279654085762
0.010777733189639
0.0092751131712041
0.0077735182250889
0.0062744325315069
0.0047794124620016
0.0032897116996426
0.0018065733447477
0.00033122618798473
-0.0011356520745804
-0.0025920680629927
-0.0040388611333763
-0.0054710264357037
-0.0068938471147243
-0.0082927564084605
-0.009683890427925
-0.011021482356216
-0.01233367620582
-0.013448051913247
0.056014370477111
0.054842572354457
0.053487930952123
0.052105770592639
0.050765802725101
0.049465509087404
0.048174813239861
0.04687001278193
0.045543402010281
0.044197357738759
0.042836520960525
0.041463926049933
0.040080337905132
0.038684964664898
0.037276549393669
0.03585424488829
0.034417873948555
0.032967627435831
0.031503655527924
0.030025923245129
0.028534319480107
0.027028781850099
0.025509330394715
0.023976045036952
0.022429059567164
0.020868575751152
0.019294953193531
0.017708704951686
0.016110568841175
0.014501477814258
0.012882687139259
0.011255567532729
0.0096217595550048
0.0079827987684496
0.0063404668688951
0.0046961785357585
0.0030516254094519
0.0014079420810171
-0.00023340327959373
-0.0018713461708587
-0.0035048871984894
-0.005132119218332
-0.0067536145179916
-0.0083639243742272
-0.0099687487732874
-0.01155107367357
-0.013129592390484
-0.014648848464452
-0.016141498739212
-0.017392733982745
0.058003705062585
0.056748795112746
0.055284135711
0.053794161182932
0.05235814599179
0.050970294548463
0.049594413086469
0.048203392312289
0.046789249902681
0.045355375447817
0.043907201193728
0.042447881522124
0.040977857253843
0.039495930003552
0.038000539998285
0.036490633621256
0.034965844621896
0.033426139687528
0.03187139564445
0.030301263392371
0.028715297350521
0.027113095097173
0.025494329430726
0.023858714195023
0.022206012187102
0.020536042476809
0.018848781348486
0.017144373968452
0.015423237365559
0.013686001553313
0.011933688289607
0.010167454156388
0.0083888365818306
0.0065992165968719
0.0048003800908841
0.0029935822563678
0.0011806421493117
-0.00063753568445943
-0.0024591867998757
-0.004283571465594
-0.0061091600723548
-0.0079343693356319
-0.0097590992884354
-0.011577772232632
-0.013395926713578
-0.015194335047826
-0.016993702388156
-0.018728133529379
-0.020434073744891
-0.021847158936004
0.060077486126832
0.058734405622628
0.057153125102708
0.055550295575992
0.054014591018378
0.052535717935556
0.051070702913849
0.049589178841534
0.048083336984102
0.046557851798852
0.045018932655455
0.043469707544908
0.041910178252304
0.04033871270504
0.038753469266502
0.037153194444238
0.035537307048034
0.03390549700114
0.032257298369944
0.030591977684351
0.02890868448721
0.027206596922824
0.025484951783474
0.023742996965866
0.021980015055343
0.02019532661833
0.018388395914189
0.016558861552242
0.014706683798982
0.012832062063209
0.010935649604355
0.0090182539192885
0.0070811817199282
0.0051255475335622
0.0031530498618029
0.0011646775404391
-0.00083766950043417
-0.0028534378982723
-0.0048805221768829
-0.0069186894178704
-0.0089656585220329
-0.011020464335868
-0.013081806900507
-0.0151444307226
-0.017212785999605
-0.019265984503009
-0.021325531301878
-0.023314873953043
-0.025272457529414
-0.026876826755457
0.062230441596751
0.060793880890577
0.059089326085159
0.057368844645841
0.055730033057128
0.054156693374791
0.052598463979571
0.0510220119884
0.049420255798356
0.047799444583693
0.046166504686904
0.044524348505853
0.042872435050644
0.041208701996242
0.039531054862711
0.037838047616754
0.036128852361012
0.034402818961716
0.032659067051719
0.030896405322104
0.0291135013437
0.027309022834889
0.025481659688017
0.023630074291538
0.021752945930515
0.019848946058003
0.017916872811344
0.0159557002659
0.013964746892296
0.011943602848215
0.0098923654926683
0.0078113321120316
0.0057013969483777
0.003563271436207
0.0013984038095854
-0.00079258534178704
-0.0030078332397436
-0.0052472345111239
-0.0075083683784546
-0.0097916651414626
-0.012093920527814
-0.014415087508764
-0.016752109814141
-0.019100559800322
-0.02146262946846
-0.023816515655439
-0.02618257168551
-0.028474010129677
-0.030727823419126
-0.03255822474202
0.064457679172079
0.062922093688287
0.061087645899439
0.059245034170471
0.057499874828016
0.055828481157877
0.054172662143309
0.05249663270699
0.050794666967973
0.049074828825715
0.047344635024741
0.045606580698896
0.043859503253074
0.042100945582213
0.040328614502423
0.038540874950982
0.036736607757832
0.03491475253654
0.033073933179469
0.031212424268965
0.029328333437524
0.027419725913209
0.025484614943368
0.023520893841413
0.021526542626341
0.019499397848632
0.017437380679803
0.015338606022756
0.013201526875762
0.011024899008504
0.0088080079133205
0.006550434083589
0.004252392656785
0.0019140356593438
-0.00046370590015168
-0.002880654019013
-0.0053352378067214
-0.0078277868534024
-0.010355752867666
-0.012920227946969
-0.015517059983925
-0.018147309119747
-0.020805655425801
-0.023488989864809
-0.026196011364304
-0.028904650828511
-0.031631889668431
-0.034281080183603
-0.036882735654856
-0.038980299903337
0.066754645150546
0.065114236790035
0.063143372925781
0.061174589340933
0.059320071254329
0.057546811942204
0.055788584899854
0.054007996956947
0.052201403416101
0.050378819515583