/*--------------------------------*- C++ -*----------------------------------*\
| =========                 |                                                 |
| \\      /  F ield         | OpenFOAM: The Open Source CFD Toolbox           |
|  \\    /   O peration     | Version:  2112                                  |
|   \\  /    A nd           | Website:  www.openfoam.com                      |
|    \\/     M anipulation  |                                                 |
\*---------------------------------------------------------------------------*/
FoamFile
{
    version     2.0;
    format      ascii;
    arch        "LSB;label=32;scalar=64";
    class       surfaceScalarField;
    location    "6";
    object      phi;
}
// * * * * * * * * * * * * * * * * * * * * * * * * * * * * * * * * * * * * * //

dimensions      [0 3 -1 0 0 0 0];

oriented        oriented;

internalField   nonuniform List<scalar> 
43645
(
0.39512346765892
-4.5945614124698e-06
0.39513735846804
-1.3890768962068e-05
0.39516113223342
-2.3773721955277e-05
0.39519557812461
-3.4445846359509e-05
0.39524137877117
-4.5800601589129e-05
0.39529904111068
-5.766229508743e-05
0.39536894367484
-6.9902520686526e-05
0.39545140852432
-8.2464807137509e-05
0.3955467682466
-9.5359681167185e-05
0.39565543886167
-0.00010867057521361
0.39577796538754
-0.00012252648729143
0.39591502655548
-0.00013706113062299
0.39606735632942
-0.00015232973785244
0.39623565588957
-0.00016829952525459
0.39642045983181
-0.00018480390846707
0.3966221109172
-0.00020165105263687
0.39684066493434
-0.00021855398532676
0.39707601342123
-0.00023534845588347
0.39732774957405
-0.00025173612249388
0.39759547576849
-0.00026772616467412
0.39787843944389
-0.00028296364602299
0.39817619820533
-0.00029775873231468
0.39848768211122
-0.00031148387687272
0.39881269255863
-0.00032501041834553
0.3991496471443
-0.00033695455640747
0.3994990360997
-0.00034938892581713
0.39985816743047
-0.00035913130073129
0.40022915834234
-0.00037099088165829
0.40060683239101
-0.00037767401841922
-0.00039017183373424
0.400997004256
0.37294678076344
-8.820520553476e-06
0.37295957142177
-2.6681358733787e-05
0.37298168397619
-4.5886206564906e-05
0.373013875951
-6.6637751515368e-05
0.37305679656011
-8.8721142002027e-05
0.37311092970761
-0.00011179537525862
0.37317663791039
-0.00013561065769018
0.37325422849902
-0.00016005533161482
0.37334401818897
-0.00018514930865113
0.37344640706729
-0.00021105939275577
0.3735619258902
-0.00023804525113003
0.37369124223318
-0.00026637741618678
0.37383508352274
-0.00029617097161227
0.37399415110812
-0.00032736705638019
0.37416898864501
-0.00035964139255455
0.37435995825791
-0.00039262061406305
0.37456714586626
-0.00042574154337364
0.37479048248222
-0.00045868502256719
0.3750296093429
-0.00049086293474494
0.37528418168246
-0.00052229845645433
0.37555350649297
-0.00055228840923421
0.37583719967591
-0.00058145186821916
0.3761342595064
-0.00060854366042466
0.37644454258165
-0.00063529344654823
0.37676654828557
-0.00065896021298622
0.3771008058968
-0.00068364648925461
0.37744474276686
-0.00070306812239562
0.3778004716155
-0.00072671968183292
0.37816304122809
-0.00074024358339889
-0.0007653227241204
0.37853819216809
0.35201497521091
-1.289814114694e-05
0.35202727698449
-3.8983062923232e-05
0.35204840701764
-6.7016170084271e-05
0.35207910682216
-9.7337487288587e-05
0.35212001189604
-0.00012962614864475
0.35217158829825
-0.00016337171200007
0.35223417647159
-0.00019819876746131
0.35230806008413
-0.00023393888252757
0.35239353299842
-0.00027062216331397
0.3524909744715
-0.00030850080816562
0.35260089566886
-0.00034796639279885
0.3527239472568
-0.00038942895032437
0.35286084373184
-0.00043306739468631
0.35301228397181
-0.00047880724609079
0.35317882082074
-0.00052617819280909
0.35336084516011
-0.00057464490613797
0.35355848410127
-0.00062338043843968
0.35377173220765
-0.00067193308385476
0.35400029601296
-0.00071942669571133
0.35424392074413
-0.00076592314381728
0.35450198546129
-0.00081035308285546
0.35477421616563
-0.00085368252908171
0.35505967080994
-0.0008939982610608
0.35535833958666
-0.00093396217918196
0.35566874419288
-0.00096936477446538
0.35599158726741
-0.0010064895182295
0.35632423871691
-0.0010357195253073
0.35666905740541
-0.0010715383232714
0.35702087578196
-0.0010920619134644
-0.0011302216591116
0.35738577476591
0.33225795017079
-1.6804292512014e-05
0.3322697038478
-5.0736676825187e-05
0.33228984823932
-8.7160498295644e-05
0.33231909332835
-0.00012658251377493
0.3323580526725
-0.00016858543155572
0.33240717458018
-0.0002124935599484
0.33246678077874
-0.00025780490792333
0.3325371347196
-0.00030429276694594
0.3326185105818
-0.00035199797080308
0.33271127122859
-0.00040126140194969
0.33281591438458
-0.00045260949750033
0.33293308167632
-0.00050659619243089
0.33306348270529
-0.00056346837564027
0.33320782269851
-0.00062314719279637
0.3333666718973
-0.00068502734647399
0.33354046051214
-0.00074843347708782
0.33372936650222
-0.00081228638570638
0.3339334625727
-0.00087602911241218
0.334152531489
-0.00093849557079031
0.33438642826164
-0.00099981987572505
0.33463461331265
-0.0010585380934285
0.33489694917429
-0.0011160183503689
0.33517255584285
-0.0011696048891618
0.33546159506406
-0.0012230013596579
0.33576259898548
-0.0012703686546498
0.33607650608149
-0.0013203965723809
0.33640059412781
-0.0013598075289792
0.33673758864945
-0.0014085328020356
0.3370820438481
-0.0014365170699879
-0.0014888532754214
0.33744067550879
0.31360978860496
-2.0535465434593e-05
0.31362097363855
-6.1921655498853e-05
0.31364011454047
-0.00010630134545086
0.31366789820182
-0.00015436612130419
0.31370491888776
-0.00020560606503332
0.31375160636167
-0.00025918098292952
0.31380826064236
-0.00031445913931664
0.31387512046728
-0.00037115254421565
0.31395243542962
-0.00042931288719814
0.31404054853394
-0.00048937446197985
0.314139943249
-0.0005520041699224
0.31425125498955
-0.00061790789192182
0.31437519427107
-0.00068740761760897
0.31451248159599
-0.0007604344795437
0.31466371467131
-0.00083626038487073
0.31482937548906
-0.00091409425899004
0.31500970450148
-0.00099261536319102
0.31520486742323
-0.0010711919999374
0.31541473495624
-0.0011483630700817
0.31563928967843
-0.0012243745644994
0.3158780837352
-0.0012973321168757
0.31613113901153
-0.0013690735932921
0.31639764473835
-0.0014361105822626
0.31667796585425
-0.0015033224413709
0.31697064462429
-0.0015630473898338
0.31727690088058
-0.0016266527930214
0.31759390353681
-0.0016768101486036
0.31792480799492
-0.0017394372230996
0.31826383679371
-0.0017755458321851
-0.0018434298748099
0.31861841343205
0.29600825386366
-2.4087422507825e-05
0.29601884643138
-7.2514174210523e-05
0.29603694801655
-0.00012440288182756
0.29606322198672
-0.00018064004351603
0.29609824265851
-0.00024062669001563
0.29614241894989
-0.00030335722875237
0.29619602572266
-0.00036806586787936
0.2962592735379
-0.00043440031659423
0.29633238467469
-0.00050242398251469
0.2964156807291
-0.0005726704762887
0.29650963052517
-0.00064595392726864
0.29661486440596
-0.00072314173529401
0.29673209609986
-0.00080463927536631
0.29686206538226
-0.00089040372696154
0.29700540230435
-0.00097959727305341
0.29716264779369
-0.0010713397153577
0.29733411224414
-0.0011640797814685
0.29752006505544
-0.0012571447797157
0.29772047431135
-0.0013487722949505
0.29793546431474
-0.0014393645372
0.29816468912621
-0.00152655689782
0.29840834768379
-0.001612732120382
0.29866570762738
-0.0016934704952427
0.29893735877072
-0.0017749735538694
0.29922186016174
-0.0018475487496178
0.29952073807811
-0.0019255306777042
0.29983105574708
-0.0019871277852897
0.30015642367064
-0.0020648051142947
0.30049073985638
-0.0021098619862092
-0.002194836953217
0.30084214696848
0.27939459732227
-2.7450186377256e-05
0.27940456080839
-8.2477620107132e-05
0.27942156131997
-0.00014140335352198
0.27944623672043
-0.00020531540489038
0.27947913930023
-0.00027352923177427
0.2795206549139
-0.00034487280549357
0.27957103092057
-0.00041844183880181
0.27963044719331
-0.00049381655476337
0.27969909574645
-0.00057107250229284
0.27977727370316
-0.0006508484008054
0.27986543265667
-0.00073411284976778
0.27996419596447
-0.00082190501318656
0.28007427934901
-0.00091472263107037
0.28019644191316
-0.0010125662632402
0.28033134734091
-0.0011145026738047
0.28047959884587
-0.0012195911940744
0.28064158106469
-0.001326061974683
0.28081767399712
-0.0014332376870355
0.28100795009253
-0.0015390483655892
0.28121268543274
-0.0016440998528703
0.28143164535324
-0.0017455167938378
0.28166521833662
-0.001846305079255
0.28191276265815
-0.0019410147920522
0.2821751065153
-0.0020373173860317
0.2824508423738
-0.0021232845827028
0.28274181332312
-0.0022165016011309
0.28304500576343
-0.0022903201991164
0.28336447964403
-0.002384278968259
0.2836938716735
-0.002439253989493
-0.0025429567406025
0.28404199148893
0.26371336835914
-3.0609062992196e-05
0.26372265658664
-9.1765813629556e-05
0.2637384781943
-0.00015722492750238
0.26376144300375
-0.00022828018127868
0.26379207836145
-0.00030416455719481
0.2638307439787
-0.00038353839125958
0.26387765639391
-0.00046535422339261
0.26393296115998
-0.00054912129105401
0.26399681678093
-0.00063492809433444
0.26406949289212
-0.00072352448394743
0.26415142048056
-0.00081604041103225
0.26424321183126
-0.0009136963375375
0.26434558142955
-0.0010170922038068
0.26445930481759
-0.0011262896264812
0.26458507800701
-0.0012402758391184
0.26472356622974
-0.0013580793933048
0.26487523003573
-0.001477725757691
0.26504056324705
-0.0015985708758344
0.26521974730471
-0.0017182324010572
0.26541321593283
-0.0018375684590814
0.26562085402629
-0.0019531548655393
0.26584324578967
-0.0020686968210015
0.26607985456084
-0.0021776235415727
0.26633174953034
-0.0022892123338761
0.26659758256524
-0.0023891175957896
0.26687950562467
-0.002498424638625
0.26717447950223
-0.0025852940544916
0.26748697236922
-0.002696771813248
0.26781047352879
-0.0027627551276487
-0.0028868157052632
0.26815433251622
0.2489122308934
-3.3547240918134e-05
0.24892079385282
-0.00010032874650755
0.24893535222932
-0.00017178327773657
0.24895648461446
-0.00024941254064138
0.24898468992996
-0.00033236984751419
0.24902029833225
-0.00041914676895572
0.2490634924595
-0.00050854832667582
0.24911438043561
-0.00060000924378728
0.24917308402668
-0.00069363166265699
0.24923984111446
-0.00079028154957887
0.24931505800958
-0.00089125728461878
0.24939933113732
-0.00099796944431178
0.24949336916909
-0.0011111302151871
0.24959795792739
-0.0012308783648953
0.24971382302653
-0.0013561409188605
0.2498416871751
-0.0014859435229124
0.24998208705014
-0.0016181256141185
0.25013562821408
-0.0017521120214803
0.25030260382107
-0.001885207989978
0.2504836058833
-0.0020185705034341
0.25067864499717
-0.0021481939616319
0.25088850098669
-0.0022785527928126
0.25111275851267
-0.0024018810498214
0.25135271855443
-0.0025291723578955
0.25160712784659
-0.0026435268700855
0.2518784187003
-0.0027697154743926
0.25216359908639
-0.0028704744224612
0.25246746596614
-0.0030006386750602
0.25278352300443
-0.0030788121485139
-0.0032247538194413
0.25312146113718
0.23494178770974
-3.6247370353614e-05
0.23494957571099
-0.00010811672662915
0.2349627877694
-0.00018499531522783
0.23498196782035
-0.00026859257096816
0.23500758270811
-0.00035798471501607
0.23503992984262
-0.00045149388353212
0.2350791553081
-0.00054777377256589
0.23512532722102
-0.00064618113744239
0.23517852788229
-0.00074683230498431
0.23523895954507
-0.00085071319374698
0.23530699913872
-0.00095929685999426
0.23538322023401
-0.0010741905216601
0.23546832036409
-0.0011962303276406
0.23556308770116
-0.0013256456846624
0.23566827362091
-0.001461326821599
0.23578464852438
-0.0016023184096707
0.23591282634902
-0.0017463034222932
0.23605351412081
-0.0018927997770479
0.23620712139707
-0.0020388152502111
0.23637439089436
-0.0021858399849105
0.23655546380101
-0.0023292668526016
0.23675131098534
-0.0024743999616355
0.23696165113831
-0.0026122211873582
0.23718799741912
-0.0027555186234367
0.23742923749757
-0.0028847669333115
0.23768802872693
-0.0030285066886811
0.23796152105433
-0.0031439667348448
0.2382547273084
-0.0032938449144938
0.23856136981159
-0.0033854546376665
-0.0035546014615558
0.2388912174685
0.22175541548926
-3.8693054454156e-05
0.22176238331719
-0.00011508453880597
0.22177417410824
-0.00019678609065062
0.22179129395862
-0.00028571240588891
0.22181417430288
-0.00038086504399113
0.22184307711424
-0.00048039667973601
0.22187810981155
-0.00058280645485595
0.22191929874577
-0.00068737005673323
0.2219666844605
-0.00079421800488437
0.22202043029565
-0.00090445901416806
0.22208087871752
-0.0010197452672276
0.22214857411766
-0.0011418859072796
0.22222419487062
-0.001271851066196
0.22230852326215
-0.001409974061909
0.22240232948144
-0.0015551330267124
0.22250642243842
-0.0017064113526231
0.22262148943196
-0.0018613704019184
0.22274832564786
-0.0020196359791796
0.22288746185075
-0.0021779514394352
0.22303977168575
-0.0023381498064001
0.2232055392737
-0.0024950344271269
0.22338590672228
-0.0026547673969471
0.22358074077436
-0.002807055226253
0.22379174328393
-0.0029665211200097
0.22401798564547
-0.0031110092819316
0.22426227502675
-0.0032727960572455
0.22452202479812
-0.0034037164936116
0.22480230831885
-0.0035741284230616
0.22509730078564
-0.0036804470928388
-0.0038738258249834
0.22541652516124
0.20930910887753
-4.0869970644337e-05
0.2093152189705
-0.0001211946199797
0.20932552742985
-0.00020709453824299
0.20934049973548
-0.00030068469978797
0.20936052899612
-0.00040089429290772
0.20938583965441
-0.00050570732624862
0.20941649914198
-0.00061346593058825
0.20945249108364
-0.00072336198643719
0.20949381278924
-0.00083553969843385
0.20954058596337
-0.0009512321761382
0.20959311386614
-0.0010722731577432
0.20965190554414
-0.0012006775729379
0.20971761166084
-0.0013375571704913
0.20979100084878
-0.0014833632374029
0.20987285051512
-0.0016369826805783
0.20996400155889
-0.0017975623839578
0.21006520264032
-0.001962571470918
0.21017732914517
-0.0021317624716959
0.21030102573562
-0.0023016480176034
0.21043727935074
-0.0024744034093949
0.21058652752368
-0.0026442825880311
0.21075004740528
-0.0028182872667257
0.21092788219103
-0.002984890000316
0.21112187810744
-0.003160517025002
0.21133133333931
-0.0033204645025561
0.21155912666207
-0.0035005893690941
0.21180306127124
-0.0036476510920805
0.21206807980464
-0.0038391469462906
0.21234907831188
-0.0039614455904765
-0.0041797193757788
0.21265497187261
0.19756133352306
-4.2766955606252e-05
0.197566558844
-0.00012641993246406
0.19757534207788
-0.00021587776362099
0.1975881059569
-0.00031344857024072
0.19760520313069
-0.00041799145800841
0.19762681915328
-0.00052732333996855
0.19765298104186
-0.00063962781008618
0.19768362960047
-0.00075401053570965
0.19771871832696
-0.00087062841533074
0.19775832520215
-0.00099083904147454
0.19780271022738
-0.0011166581728669
0.19785234108921
-0.0012503084244187
0.1979078326709
-0.0013930487416171
0.19796993152711
-0.0015454620828809
0.19803941085707
-0.0017064619996516
0.19811713505366
-0.0018752865695822
0.19820389884504
-0.0020493352512558
0.19830065210567
-0.0022285157213103
0.19840813575479
-0.0024091316557253
0.19852744042783
-0.0025937080715503
0.19865915145189
-0.0027759936013074
0.19880464862787
-0.0029637844321332
0.19896418072138
-0.0031444220834102
0.1991396713412
-0.00333600763471
0.19933070609707
-0.0035114992485177
0.19954014029095
-0.0037100235534441
0.19976628811503
-0.0038737989068937
0.20001375627206
-0.0040866150946001
0.20027844918124
-0.0042261384914615
-0.0044695515865537
0.20056828140044
0.1864728870278
-4.4376607587145e-05
0.18647721261288
-0.00013074551138782
0.1864844487959
-0.00022311394038631
0.1864949740985
-0.00032397386642439
0.18650909915665
-0.00043211650953647
0.18652697004404
-0.00054519422047347
0.18654857375748
-0.00066123151632993
0.18657380908914
-0.00077924585983082
0.18660258603869
-0.00089940535696818
0.1866349377342
-0.0010231907287118
0.18667107759639
-0.0011527980264145
0.18671142669171
-0.0012906575107441
0.18675655658423
-0.0014381786248185
0.18680718319451
-0.0015960886835649
0.18686406491513
-0.0017633437104364
0.18692807863102
-0.0019393002754722
0.18700005205306
-0.0021213086631647
0.18708099648236
-0.0023094601404687
0.18717173490844
-0.0024998700716537
0.18727344735208
-0.0026954205051749
0.18738685477595
-0.0028894010152717
0.18751341396042
-0.0030903436069629
0.18765359271617
-0.0032846008297293
0.18780932411673
-0.0034917390262295
0.18798055132755
-0.0036827264505567
0.18816998404153
-0.0038994562590935
0.18837657685826
-0.0040803917155964
0.18860439615877
-0.0043144343876471
0.18885062972409
-0.0044723720498077
-0.0047407113464474
0.18912178949111
0.1760067679464
-4.5695789745622e-05
0.17601019212576
-0.00013416968618921
0.17601588190058
-0.00022880371049048
0.1760241708138
-0.00033226277472181
0.17603532691665
-0.00044327260723512
0.17604945707142
-0.00055932436977716
0.17606650942234
-0.00067828386145948
0.17608634231136
-0.00079907874268434
0.17610882325972
-0.00092188629876241
0.17613394021745
-0.0010483076794542
0.17616185763105
-0.001180715432593
0.17619294551087
-0.0013217453827375
0.17622772581114
-0.0014729589168582
0.17626687518108
-0.0016352380449218
0.1763111283097
-0.0018075968301531
0.17636136103061
-0.0019895329872534
0.17641842409522
-0.0021783717184748
0.17648337101431
-0.0023744070502132
0.17655709700538
-0.0025735960533602
0.17664084811674
-0.0027791716073286
0.17673547415625
-0.0029840270457301
0.17684247615089
-0.0031973455928813
0.17696255184202
-0.0034046765124067
0.17709757738062
-0.003626764556855
0.17724791386444
-0.003833062926737
0.17741599957931
-0.0040675419668419
0.1776015609964
-0.0042659531259078
0.17780791693381
-0.0045207903188412
0.17803379233021
-0.0046982474403935
-0.0049908421441903
0.17828392313389
0.16612805191079
-4.6725717186256e-05
0.16613058608797
-0.00013670385969422
0.16613475270346
-0.0002329703221546
0.16614084014881
-0.00033835021605901
0.16614907385107
-0.00045150630526795
0.16615952225794
-0.00056977277216337
0.16617209654694
-0.00069085814569528
0.16618661709841
-0.00081359928906905
0.16620291098502
-0.00093818017993088
0.16622092146365
-0.0010663181522456
0.16624076255719
-0.0012005565198787
0.16626274937339
-0.0013437321922635
0.16628734921109
-0.0014975587474331
0.166315191168
-0.0016630799943286
0.1663469785902
-0.0018393842444731
0.16638357250693
-0.0020261268958513
0.16642583753112
-0.0022206367343202
0.16647484849954
-0.0024234180102367
0.16653156536435
-0.0026303129097693
0.16659726910565
-0.0028448753404359
0.16667293994983
-0.0030596978819307
0.16676007715449
-0.0032844827899952
0.16685962683664
-0.0035042261874148
0.16697334032677
-0.0037404780404275
0.16710204354085
-0.0039617661347281
0.16724779123004
-0.0042132896505761
0.16741119398445
-0.0044293558752749
0.16759462572449
-0.0047042220544009
0.16779856943342
-0.0049021911451327
-0.0052179323989028
0.16802565969247
0.15680377504302
-4.747206724001e-05
0.15680544370912
-0.00013837252251456
0.15680813180433
-0.00023565841399676
0.15681208334411
-0.00034230175241212
0.15681748176159
-0.00045690471924605
0.15682435862633
-0.00057664963330349
0.156832590781
-0.00069909029666237
0.15684196361581
-0.00082297212002475
0.15685226634474
-0.00094848290480412
0.15686339868292
-0.0010774504860965
0.15687542400118
-0.0012125818334879
0.15688859978871
-0.0013569079747719
0.1569033349438
-0.0015122938970779
0.156920203803
-0.0016799488476847
0.15693987127247
-0.0018590517077157
0.15696317072099
-0.0020494263378574
0.15699097160353
-0.0022484376101152
0.15702434854547
-0.0024567949453766
0.15706432118404
-0.0026702855415762
0.15711216915838
-0.0028927233082723
0.15716900994857
-0.003116538665946
0.15723628864137
-0.0033517614771772
0.15731521675202
-0.0035831542930207
0.15740736114297
-0.0038326224271042
0.15751404329386
-0.0040684482820057
0.15763684020216
-0.0043360865560621
0.1577773380565
-0.0045698537273139
0.15793679140068
-0.0048636753968584
0.15811761460377
-0.005083014346627
-0.0054203805698187
0.15832006277641
0.14800282331328
-4.7944447447254e-05
0.14800366299582
-0.00013921220161912
0.14800493714689
-0.00023693256172342
0.14800684629381
-0.00034421089620897
0.14800953338718
-0.00045959180973801
0.14801299522714
-0.00058011147062451
0.14801707737747
-0.00070317244458788
0.14802153366691
-0.00082742840723257
0.14802611882009
-0.00095306805585129
0.14803069070285
-0.0010820223666991
0.14803526262424
-0.0012171537525863
0.14804003267741
-0.0013616780253958
0.14804534889384
-0.0015176101106272
0.14805172513323
-0.0016863250838131
0.14805978168073
-0.0018671082515779
0.14807031291074
-0.002059957563933
0.1480841840422
-0.002262308737405
0.14810244976241
-0.0024750606613725
0.1481261822105
-0.0026940179855334
0.14815662877736
-0.0029231698713379
0.14819504162372
-0.0031549515089637
0.14824277402393
-0.0033994938747828
0.14830129804272
-0.0036416783100078
0.14837195660751
-0.003903280991117
0.14845657761964
-0.0041530692942802
0.14855618751943
-0.0044356964570408
0.1486734125968
-0.0046870788065793
0.14880825601292
-0.004998518815486
0.14896518553656
-0.0052399438726891
-0.0055970455060251
0.14914185047046
0.13969582890976
-4.8156093189451e-05
0.13969588590643
-0.00013926919357155
0.13969582708338
-0.00023687373424713
0.13969581155416
-0.00034419536324099
0.1396959434384
-0.00045972369104756
0.13969618680785
-0.00058035483796738
0.13969635910951
-0.00070334474492667
0.13969618636531
-0.00082725566240008
0.13969539310018
-0.00095227479062046
0.13969379779943
-0.0010804270661808
0.13969136536032
-0.0012147213138549
0.13968823316077
-0.0013585458261502
0.13968468700614
-0.0015140639560926
0.13968117541287
-0.0016828134903257
0.13967826921655
-0.0018642020546821
0.13967671440934
-0.0020584027558424
0.13967736190158
-0.0022629562285421
0.13968123300476
-0.0024789317634206
0.13968943543006
-0.0027022204098307
0.13970317259646
-0.0029369070371709
0.13972380223679
-0.0031755811493399
0.13975258459611
-0.0034282762351052
0.13979120789697
-0.0036803016129437
0.13984079226856
-0.0039528653661512
0.13990363153306
-0.0042159085635015
0.13998019316636
-0.0045122580964593
0.14007412761848
-0.0047810132657982
0.14018415233429
-0.0051085435390608
0.14031681354799
-0.0053726050938326
-0.005747254714303
0.14046702274892
0.13185507187081
-4.8123227081827e-05
0.13185440092644
-0.00013859824044908
0.13185310406121
-0.00023557686047879
0.131851300043
-0.00034239133771508
0.13184905642449
-0.00045748006681941
0.13184630848734
-0.00057760689672988
0.13184285028228
-0.00069988653731434
0.13183838337824
-0.00082278875715615
0.13183260531813
-0.00094649673038522
0.13182529705565
-0.0010731188043358
0.13181637818628
-0.0012058024455763
0.13180592487148
-0.0013480925126089
0.13179416149905
-0.0015023005848396
0.1317814663741
-0.0016701183663154
0.13176835869803
-0.0018510943792353
0.13175552717458
-0.0020455712327393
0.13174379855664
-0.0022512276107472
0.13173415337987
-0.0024692865867977
0.1317277072339
-0.0026957742642183
0.13172563006401
-0.0029348298681928
0.13172932327523
-0.003179274362285
0.13174000185979
-0.003438954822625
0.13175946218758
-0.0036997619451047
0.1317886987611
-0.0039821019458167
0.13183029092063
-0.0042575007309302
0.13188432690531
-0.0045662940908927
0.13195522027009
-0.0048519066417093
0.13204066982292
-0.0051939931038187
0.13214910842939
-0.0054810437116669
-0.0058707331034977
0.1322725868075
0.12445438590655
-4.7862779778659e-05
0.12445304797883
-0.00013726029451561
0.12445062005283
-0.00023314891568959
0.12444717945025
-0.00033895071781942
0.12444275742554
-0.00045305802712933
0.12443726423449
-0.00057211369319466
0.12443047828952
-0.00069310058220998
0.12442208377653
-0.0008143942360442
0.12441175541599
-0.0009361683633532
0.12439923676677
-0.0010606001497845
0.12438440382624
-0.0011909695004785
0.12436726992562
-0.0013309586077791
0.12434800106492
-0.0014830317199999
0.12432690013685
-0.0016490174339732
0.12430443762626
-0.001828631864131
0.1242812333281
-0.002022366929842
0.12425808693876
-0.0022280812165522
0.12423592733383
-0.0024471269771009
0.12421585504416
-0.002675701970145
0.12419902005445
-0.0029179948748332
0.12418679367074
-0.0031670479760211
0.12418042497364
-0.0034325861245522
0.12418164005541
-0.0037009770277774
0.12419154861828
-0.0039920105118515
0.12421259267019
-0.0042785447883603
0.12424505683123
-0.0045987582598799
0.12429321249368
-0.0049000623139987
0.1243548054718
-0.0052555860928168
0.124439224015
-0.0055654622650615
-0.0059680200540779
0.1245365109564
0.1174690733648
-4.7392337301634e-05
0.11746712895443
-0.0001353158485834
0.11746368223015
-0.00022970215412886
0.11745876790579
-0.00033403635757453
0.11745238085028
-0.00044667093850325
0.11744440658274
-0.00056413939565856
0.11743461177735
-0.0006833057497872
0.11742267066008
-0.00080245309425866
0.11740824396012
-0.00092174164088036
0.11739104329956
-0.0010433994681568
0.11737090238141
-0.0011708285622167
0.11734776745799
-0.0013078236647652
0.11732174815949
-0.0014570124021142
0.11729306676395
-0.0016203360190289
0.117262152506
-0.0017977175866691
0.11722953973447
-0.0019897541387283
0.11719601327315
-0.0021945547356618
0.11716241869987
-0.00241353238456
0.11712985657272
-0.0026431398243298
0.11709942189375
-0.0028875601783098
0.117072451353
-0.0031400774192397
0.11705023793471
-0.0034103726923503
0.11703430736769
-0.0036850464492792
0.11702613867716
-0.0039838418127574
0.1170274525914
-0.0042798586970295
0.11703984725666
-0.0046111529227197
0.11706542816085
-0.0049256432183266
0.11710494184326
-0.0052950997768154
0.11716374816044
-0.0056242685831885
-0.0060421614316565
0.11723788953988
0.11087583386019
-4.6741249540794e-05
0.11087335246158
-0.00013283439043883
0.11086899835606
-0.00022534798644332
0.11086276431657
-0.00032780225727997
0.11085462181413
-0.00043852837829423
0.11084444000977
-0.0005539575369836
0.11083197585641
-0.00067084154533626
0.11081689114059
-0.00078736833004432
0.11079883348356
-0.00090368393754171
0.11077749008261
-0.0010220560223951
0.11075265492141
-0.0011459933571952
0.11072420719614
-0.0012793758962532
0.11069220143864
-0.0014250066016709
0.11065678091234
-0.0015849154499128
0.11061833918272
-0.0017592758142975
0.11057731081392
-0.0019487257272885
0.11053448775759
-0.0021517316369978
0.11049057995531
-0.0023696245405344
0.11044675679004
-0.0025993166183792
0.11040392728712
-0.0028447306363155
0.11036355776492
-0.003099707860221
0.1103267470609
-0.0033735619543416
0.11029505910518
-0.0036533584628677
0.11027010884648
-0.0039588915269761
0.11025282506814
-0.0042625748954601
0.11024685973098
-0.004605187566289
0.11025010033974
-0.0049288838112811
0.11027169856899
-0.0053166979922607
0.11030050937586
-0.0056530793757566
-0.0060981047122163
0.11035645267615
0.10465267569779
-4.5950905163883e-05
0.10464977397653
-0.00012993258411176
0.1046446445943
-0.00022021851756229
0.10463723693331
-0.00032039451134991
0.10462752080225
-0.00042881216540273
0.10461537244578
-0.00054180910204183
0.10460055386569
-0.00065602288983389
0.10458271963597
-0.00076953402736696
0.10456151540265
-0.0008824796331039
0.10453659744511
-0.00099713799501157
0.10450770304865
-0.0011170988917402
0.10447464221916
-0.0012463149982928
0.10443741247552
-0.0013877767898974
0.10439609252739
-0.0015435954338973
0.10435104225515
-0.0017142254744293
0.10430260199328
-0.0019002853981758
0.104251577467
-0.0021007070440948
0.10419850958107
-0.0023165565890862
0.10414470682358
-0.0025455137970139
0.10409072885556
-0.0027907526069669
0.10403845660818
-0.00304743555472
0.10398827301173
-0.003323378303827
0.1039426282773
-0.0036077136786746
0.10390187828029
-0.0039181414848729
0.10386825786275
-0.0042289544375879
0.10384414874871
-0.0045810784169996
0.10382733094894
-0.0049120659806168
0.10383218509213
-0.0053215521072216
0.10383482938171
-0.005655723636564
-0.0061366870674347
0.10387341177492
0.09877878017232
-4.5012715950888e-05
0.098775593445013
-0.00012674575536273
0.098769833159984
-0.00021445813065493
0.098761433630392
-0.00031199488181604
0.098750342600064
-0.00041772103789724
0.098736475754721
-0.00052794216232156
0.098719610322515
-0.00063915736560282
0.098699338076
-0.00074926169056559
0.09867539453205
-0.00085853600000522
0.098647416453194
-0.00096915982767155
0.098615070228858
-0.0010847525792775
0.098578098160139
-0.001209342841612
0.09853642996254
-0.001346108504464
0.098490077753337
-0.0014972431369719
0.09843935030352
-0.0016634979371685
0.098384527745716
-0.0018454627533709
0.098326387367453
-0.0020425665797581
0.098265343824204
-0.0022555129612731
0.098202779471562
-0.0024829493623546
0.098138942897819
-0.0027269159548184
0.098076136616001
-0.0029846291993367
0.098013844131831
-0.0032610857516525
0.097955949327988
-0.0035498188128497
0.097900141524222
-0.0038623336251937
0.097853217167337
-0.0041820300310506
0.097809415312905
-0.0045372765193672
0.097779409986985
-0.0048820606171074
0.097754482742455
-0.0052966248277321
0.09773790735442
-0.0056391482109673
0.097797200732733
-0.0061959803970073
0.39644747981041
0.0045495244775167
0.39205683196423
0.0043906478778167
0.38782947756204
0.0042273544340775
0.38376976387914
0.004059713715344
0.37988191624063
0.0038878476716877
0.37617003342963
0.0037118828449632
0.3726380688703
0.0035319645941167
0.3692898076063
0.0033482612995504
0.36612884840124
0.0031609592413274
0.36315859143945
0.0029702569986875
0.36038223268849
0.0027763587884186
0.3578027630531
0.002579469673287
0.35542297226487
0.0023797908264609
0.35324545452955
0.0021775177737591
0.35127261435975
0.0019728402083309
0.34950666880271
0.0017659455955189
0.34794964472576
0.0015570241152833
0.34660336936184
0.0013462754019401
0.34546945557589
0.0011339138235842
0.34454928600779
0.00092016960519759
0.34384400009833
0.0007052859459731
0.34335448965201
0.00048951048214039
0.3430813912661
0.00027309842100442
0.34302496216111
5.6429139282042e-05
0.34318607244962
-0.00016111025499739
0.34356491792815
-0.00037884544584723
0.34416158681233
-0.00059666885226886
0.34497624702938
-0.00081466018592571
0.34600904135347
-0.0010327942936977
0.34726003687056
-0.0012509954874191
0.34872917135075
-0.0014691344511555