/*--------------------------------*- C++ -*----------------------------------*\
| =========                 |                                                 |
| \\      /  F ield         | OpenFOAM: The Open Source CFD Toolbox           |
|  \\    /   O peration     | Version:  2112                                  |
|   \\  /    A nd           | Website:  www.openfoam.com                      |
|    \\/     M anipulation  |                                                 |
\*---------------------------------------------------------------------------*/
FoamFile
{
    version     2.0;
    format      ascii;
    arch        "LSB;label=32;scalar=64";
    class       volVectorField;
    location    "6";
    object      U;
}
// * * * * * * * * * * * * * * * * * * * * * * * * * * * * * * * * * * * * * //

dimensions      [0 1 -1 0 0 0 0];

internalField   nonuniform List<vector> 
22000
(
(1.0000010262517 -2.3833161866916e-05 0)
(1.0000248172945 -7.212201027657e-05 0)
(1.0000714272057 -0.00012380691808981 0)
(1.0001438456136 -0.000179574028414 0)
(1.000244561123 -0.00023885969731906 0)
(1.0003751018441 -0.00030077518827521 0)
(1.0005363724826 -0.00036467478947899 0)
(1.0007290927784 -0.00043027329026003 0)
(1.0009539794893 -0.00049762186538437 0)
(1.0012119093535 -0.00056714198970125 0)
(1.0015040690995 -0.00063948364599135 0)
(1.0018320722891 -0.00071531727138122 0)
(1.0021977752567 -0.00079490648470481 0)
(1.0026031025787 -0.00087806597726801 0)
(1.0030496252114 -0.00096392214856387 0)
(1.0035385366223 -0.0010514808342165 0)
(1.0040702522223 -0.0011392524987327 0)
(1.0046448172507 -0.0012263965240353 0)
(1.0052613747528 -0.0013113612260066 0)
(1.0059191310915 -0.0013942160959603 0)
(1.0066162530527 -0.0014730982420826 0)
(1.0073516918501 -0.0015496619527529 0)
(1.0081228535497 -0.0016205860437339 0)
(1.0089290285582 -0.0016905044225692 0)
(1.009766737672 -0.0017520635439676 0)
(1.0106362416598 -0.0018163103964325 0)
(1.0115325736434 -0.0018662808324359 0)
(1.0124578774126 -0.0019276769964221 0)
(1.0134046221873 -0.0019614907842608 0)
(1.0143784727051 -0.0020269537797775 0)
(1.0000005316939 -6.9867000242248e-05 0)
(1.000023841734 -0.00021144183764011 0)
(1.0000698158042 -0.00036312888839668 0)
(1.0001414767657 -0.00052695908058799 0)
(1.0002413552816 -0.00070123784890674 0)
(1.0003710469541 -0.00088329382741351 0)
(1.0005315218231 -0.0010711823955448 0)
(1.000723535155 -0.001264040791233 0)
(1.0009477915932 -0.0014620251064498 0)
(1.001205181691 -0.0016664210805235 0)
(1.0014968985172 -0.0018792271085655 0)
(1.0018246467518 -0.0021025173331759 0)
(1.0021903195271 -0.0023371556912588 0)
(1.0025960168479 -0.0025826431199118 0)
(1.0030433078932 -0.0028364186038945 0)
(1.0035336545706 -0.0030955237933333 0)
(1.0040673269617 -0.0033555430925496 0)
(1.0046448130531 -0.0036139366580331 0)
(1.0052648168276 -0.0038661227984222 0)
(1.0059273681464 -0.0041122208017688 0)
(1.0066296184271 -0.0043468002574374 0)
(1.0073721347061 -0.0045745850511445 0)
(1.008150168793 -0.0047860011302093 0)
(1.0089662324142 -0.0049943331771537 0)
(1.0098124248309 -0.0051784968708852 0)
(1.0106954375587 -0.0053700763915057 0)
(1.0116014027301 -0.0055206371464338 0)
(1.0125452312661 -0.0057034165659004 0)
(1.0135019101661 -0.0058075074742869 0)
(1.0145020424454 -0.006001104335454 0)
(1.0000005679816 -0.00011330527714984 0)
(1.0000242786883 -0.00034272162465112 0)
(1.0000709223174 -0.00058872032633123 0)
(1.0001434621958 -0.00085468518859383 0)
(1.0002444051811 -0.0011378233143078 0)
(1.0003753700783 -0.0014337040715452 0)
(1.0005373399009 -0.0017390850803529 0)
(1.0007310798808 -0.0020525193588676 0)
(1.0009572718115 -0.0023742678697557 0)
(1.0012168269034 -0.0027064975868369 0)
(1.001510919265 -0.0030525804619036 0)
(1.001841345263 -0.0034160375766496 0)
(1.0022099846697 -0.0037983860439215 0)
(1.0026191502188 -0.0041989086720411 0)
(1.003070342024 -0.0046134579535771 0)
(1.0035654183754 -0.0050372666542593 0)
(1.0041043875619 -0.0054630952831835 0)
(1.0046884723448 -0.0058868766503437 0)
(1.0053156729688 -0.0063010191136876 0)
(1.0059874228562 -0.0067058781130638 0)
(1.0066992338017 -0.0070923291127012 0)
(1.0074544151088 -0.0074684519950461 0)
(1.0082446671011 -0.0078180508826579 0)
(1.0090779586241 -0.008163620895202 0)
(1.0099389445133 -0.0084695217274299 0)
(1.0108453034582 -0.0087890339395459 0)
(1.0117678304231 -0.009040537456843 0)
(1.0127436515774 -0.0093471879454389 0)
(1.0137167655736 -0.0095227438436369 0)
(1.0147625390516 -0.009849117740442 0)
(1.0000006014695 -0.00015486660029189 0)
(1.0000246038044 -0.00046791235292767 0)
(1.0000717381801 -0.00080367705707806 0)
(1.0001449931853 -0.0011669590133107 0)
(1.0002468937738 -0.001553927878754 0)
(1.0003790773352 -0.0019584281023991 0)
(1.0005425202335 -0.0023759131213598 0)
(1.0007379960762 -0.0028043374577543 0)
(1.0009661600167 -0.0032440662144081 0)
(1.001227960583 -0.0036981631058005 0)
(1.0015245518736 -0.0041713764141147 0)
(1.0018578673515 -0.0046686866975085 0)
(1.0022297665785 -0.0051922829534647 0)
(1.002642856353 -0.005741329184766 0)
(1.0030985217421 -0.0063102075000537 0)
(1.0035991700414 -0.0068925679627253 0)
(1.0041444230902 -0.0074784857143491 0)
(1.0047365392938 -0.0080626438881425 0)
(1.0053725176665 -0.0086344525656812 0)
(1.0060557756622 -0.0091948244200788 0)
(1.0067795224077 -0.0097307016019979 0)
(1.0075509278363 -0.010254021756876 0)
(1.0083567364691 -0.010741304576281 0)
(1.0092125407348 -0.011225237021763 0)
(1.0100926817979 -0.01165417245205 0)
(1.011030067316 -0.012105108057958 0)
(1.0119744054551 -0.012460258038633 0)
(1.012993372588 -0.012896798315862 0)
(1.0139887374665 -0.013147212243189 0)
(1.0150968448691 -0.013615232715573 0)
(1.0000006404213 -0.00019459556661864 0)
(1.0000248624698 -0.0005871084987771 0)
(1.0000723293654 -0.0010081572111698 0)
(1.0001460741532 -0.0014640163810721 0)
(1.0002486666606 -0.0019498626606363 0)
(1.0003817819564 -0.0024578230911702 0)
(1.0005463829734 -0.0029820167654097 0)
(1.0007432334455 -0.0035197749710681 0)
(1.0009729280944 -0.0040715738580781 0)
(1.001236441769 -0.0046414227732905 0)
(1.0015348865159 -0.005235501267504 0)
(1.0018703614851 -0.0058603269127268 0)
(1.0022446922742 -0.0065188312831015 0)
(1.0026608601931 -0.0072102020003438 0)
(1.0031201029084 -0.0079274751022718 0)
(1.0036255351156 -0.0086629587840896 0)
(1.0041762931289 -0.0094041539130673 0)
(1.0047759634389 -0.010144792055929 0)
(1.0054202890116 -0.010871240906089 0)
(1.0061152087671 -0.011585351602551 0)
(1.0068510566585 -0.012269786728667 0)
(1.0076398571831 -0.012940989985972 0)
(1.0084622120165 -0.013567317670406 0)
(1.009343196137 -0.014192942043581 0)
(1.0102444724732 -0.014748317790153 0)
(1.0112176684155 -0.015336804908496 0)
(1.012186814265 -0.015800600073977 0)
(1.0132566895755 -0.016376232377334 0)
(1.0142781611794 -0.016707337535306 0)
(1.0154607048289 -0.017329899050389 0)
(1.0000006848758 -0.00023246342908816 0)
(1.0000250265276 -0.00070016718780795 0)
(1.0000726041084 -0.00120190989708 0)
(1.0001464938185 -0.0017455192958215 0)
(1.0002493118963 -0.0023252171329868 0)
(1.0003827701286 -0.0029314108893326 0)
(1.0005478016238 -0.0035568484317303 0)
(1.0007451440305 -0.0041982102368429 0)
(1.0009753067313 -0.004856090729239 0)
(1.0012392875024 -0.0055355010550678 0)
(1.0015381376558 -0.006244116592273 0)
(1.0018741461718 -0.0069900833705341 0)
(1.0022490851876 -0.0077771547106648 0)
(1.0026663776972 -0.0086046993239004 0)
(1.003127076068 -0.0094645366967282 0)
(1.0036351417302 -0.010347897217696 0)
(1.0041891331512 -0.011239817974651 0)
(1.0047942286265 -0.012133413904221 0)
(1.0054446981033 -0.013011947416347 0)
(1.0061494785938 -0.013878648995488 0)
(1.006895558865 -0.014711500178881 0)
(1.0077006623015 -0.015532204723158 0)
(1.0085383085823 -0.016299954716173 0)
(1.0094445364819 -0.017071894413175 0)
(1.0103665546156 -0.017758447517611 0)
(1.0113773121293 -0.018492321432748 0)
(1.0123719213227 -0.019071417961754 0)
(1.0134967824291 -0.019797499070381 0)
(1.0145462547275 -0.020217104761298 0)
(1.0158105726355 -0.021009660926033 0)
(1.0000007323267 -0.00026839642130093 0)
(1.0000250421036 -0.00080682767857122 0)
(1.000072406034 -0.0013844755535635 0)
(1.0001459312167 -0.0020108024805797 0)
(1.0002482706437 -0.0026791097558912 0)
(1.0003811648489 -0.0033780739916605 0)
(1.0005455019629 -0.0040990239177514 0)
(1.0007419807491 -0.0048379540149368 0)
(1.0009710009587 -0.0055955824941242 0)
(1.001233574551 -0.0063779841885431 0)
(1.001530666559 -0.0071944035532961 0)
(1.001864768951 -0.008054719416305 0)
(1.0022375724838 -0.0089635975089995 0)
(1.0026529935838 -0.0099207630205667 0)
(1.0031118578963 -0.010916961370272 0)
(1.0036190939989 -0.011942634860091 0)
(1.0041726026693 -0.012980475843813 0)
(1.0047793842238 -0.014023349968815 0)
(1.0054320641114 -0.015051346195698 0)
(1.0061429770011 -0.016069556740379 0)
(1.0068954184831 -0.017050855354218 0)
(1.0077134691539 -0.018023017709897 0)
(1.0085629222969 -0.018935021079424 0)
(1.009491829985 -0.019858546161226 0)
(1.0104318526662 -0.020681786316002 0)
(1.0114788520377 -0.021569851571418 0)
(1.0124973416315 -0.02227204703203 0)
(1.013677579892 -0.023161184673938 0)
(1.0147552442672 -0.023678712491269 0)
(1.0161039540993 -0.024658103866565 0)
(1.0000007813382 -0.00030227251272453 0)
(1.0000248539927 -0.00090670032601264 0)
(1.0000715818287 -0.0015551731206356 0)
(1.0001440833605 -0.0022588652823808 0)
(1.0002450311446 -0.0030101888468034 0)
(1.0003761817512 -0.0037960750015446 0)
(1.0005383591184 -0.004606382909564 0)
(1.0007322049625 -0.0054363852481012 0)
(1.0009579807461 -0.0062869314211291 0)
(1.0012166978992 -0.0071652242787173 0)
(1.0015092063716 -0.0080821538069733 0)
(1.0018382054111 -0.0090494393522938 0)
(1.0022052736561 -0.010072756220462 0)
(1.0026148579347 -0.011152370514793 0)
(1.0030675158913 -0.012278108383795 0)
(1.0035692395821 -0.013439931032539 0)
(1.0041172084719 -0.014618317537239 0)
(1.0047204328303 -0.015806274977916 0)
(1.0053697782169 -0.016980658096012 0)
(1.0060812813848 -0.018148925841123 0)
(1.0068343397574 -0.019278426678179 0)
(1.0076598293428 -0.020403826578258 0)
(1.0085155118197 -0.021462874707401 0)
(1.009461988677 -0.022543305764287 0)
(1.0104150543193 -0.023509009277549 0)
(1.0114939287346 -0.024560355051957 0)
(1.0125325646779 -0.025394141566655 0)
(1.0137647930394 -0.026459401183641 0)
(1.0148691566123 -0.027085638654733 0)
(1.0162999057195 -0.028269135553853 0)
(1.0000008293069 -0.00033393467989699 0)
(1.0000244157396 -0.00099930820553305 0)
(1.0000700005724 -0.0017131803789391 0)
(1.0001406879786 -0.0024885041356133 0)
(1.0002391487411 -0.003316832462721 0)
(1.000367136658 -0.0041833380104537 0)
(1.0005253902031 -0.0050763625510568 0)
(1.0007144720542 -0.0059904205121837 0)
(1.0009344777648 -0.0069264996807088 0)
(1.0011863962011 -0.0078929891878061 0)
(1.0014709331482 -0.0089024987167231 0)
(1.0017909836161 -0.009968687881165 0)
(1.0021479867511 -0.011098345826415 0)
(1.0025469315928 -0.012292461745658 0)
(1.0029880798936 -0.013540118779914 0)
(1.0034785456087 -0.014831106821528 0)
(1.0040147529017 -0.016143848637036 0)
(1.0046078480561 -0.017471890751459 0)
(1.0052468895569 -0.0187888145008 0)
(1.0059518015988 -0.020104954561129 0)
(1.0066980455551 -0.021381757297523 0)
(1.0075234649501 -0.022661550683806 0)
(1.0083778710877 -0.02386997668102 0)
(1.0093343806885 -0.025112145293743 0)
(1.0102934457304 -0.026225918915353 0)
(1.0113968463975 -0.027449283303398 0)
(1.0124498521031 -0.028423446170257 0)
(1.0137269053487 -0.029677562275377 0)
(1.0148548284124 -0.030424406031957 0)
(1.0163602205701 -0.031828659552612 0)
(1.0000008751588 -0.00036321044429987 0)
(1.0000236864762 -0.0010841471136911 0)
(1.0000675500359 -0.0018576379207527 0)
(1.0001355246518 -0.002698466308843 0)
(1.0002302530495 -0.0035973555884051 0)
(1.0003534631137 -0.0045377100348887 0)
(1.0005057878522 -0.0055063114493521 0)
(1.0006876831475 -0.0064968790396385 0)
(1.0008990572106 -0.0075105460816282 0)
(1.0011408413862 -0.0085569346001474 0)
(1.0014135807137 -0.0096504439373891 0)
(1.001720322313 -0.010806754441653 0)
(1.0020623636555 -0.012033884150243 0)
(1.0024451888147 -0.013333705446149 0)
(1.002868790848 -0.014694777588394 0)
(1.0033413709746 -0.016106992829451 0)
(1.0038586548328 -0.017546946096749 0)
(1.0044339255693 -0.0190090698132 0)
(1.0050545082522 -0.020463707354254 0)
(1.0057442384945 -0.021924533163065 0)
(1.0064747902271 -0.023346788453166 0)
(1.0072908632567 -0.024781149387095 0)
(1.0081348110669 -0.026140475821123 0)
(1.0090915934218 -0.027548241437104 0)
(1.0100477481894 -0.028815136788537 0)
(1.0111655232606 -0.030218294469044 0)
(1.0122252320064 -0.031341517464113 0)
(1.0135362620892 -0.032796110636967 0)
(1.0146830434891 -0.033676271123159 0)
(1.0162507588378 -0.03531628808067 0)
(1.0000009161626 -0.00038992853117337 0)
(1.0000226349791 -0.0011607328642468 0)
(1.000064145348 -0.0019877302393578 0)
(1.0001284258293 -0.0028875681523341 0)
(1.0002180649753 -0.0038501682953859 0)
(1.0003347372773 -0.0048571630556343 0)
(1.00047895288 -0.0058937375485118 0)
(1.0006510276384 -0.0069527811173581 0)
(1.0008506691049 -0.0080355766112911 0)
(1.0010787014836 -0.0091530131632865 0)
(1.0013355095505 -0.010321339417613 0)
(1.0016242125299 -0.011558314060023 0)
(1.0019460027027 -0.012873306452743 0)
(1.0023067319845 -0.014269196633373 0)
(1.0027062422993 -0.01573429873672 0)
(1.0031536335847 -0.017258793102675 0)
(1.0036441712518 -0.018817825796118 0)
(1.0041930211792 -0.020406880352465 0)
(1.0047861235896 -0.021993330411624 0)
(1.0054509277902 -0.02359444428108 0)
(1.0061557668667 -0.025159140413498 0)
(1.0069517584996 -0.026747015989533 0)
(1.0077746491108 -0.028257638233413 0)
(1.008720017159 -0.029833491982697 0)
(1.0096627844392 -0.031257729660173 0)
(1.0107822065033 -0.032846895543439 0)
(1.0118392751316 -0.034127413499927 0)
(1.0131700454364 -0.035792309212513 0)
(1.0143294537856 -0.036818996998579 0)
(1.0159424911941 -0.038707155524148 0)
(1.0000009514875 -0.00041393236634374 0)
(1.0000212385501 -0.0012286414491625 0)
(1.0000597284022 -0.0021027528744667 0)
(1.0001192834383 -0.0030547922610162 0)
(1.0002024069591 -0.0040739065607017 0)
(1.0003106945557 -0.0051399610040861 0)
(1.0004445134891 -0.0062365140962118 0)
(1.0006040122017 -0.0073555952489459 0)
(1.000788676092 -0.008498633896023 0)
(1.0009991860867 -0.0096778112325266 0)
(1.0012357434255 -0.010911260287398 0)
(1.0015014875468 -0.012218869357303 0)
(1.0017974895112 -0.013611448406269 0)
(1.002129894464 -0.015093032588104 0)
(1.0024984272186 -0.016651924975804 0)
(1.0029129598214 -0.018278825935214 0)
(1.0033684699167 -0.01994778666404 0)
(1.0038817353253 -0.021655482584299 0)
(1.0044377504705 -0.023366730427925 0)
(1.005067020527 -0.025102358056868 0)
(1.0057353756637 -0.026805303921898 0)
(1.0064993528902 -0.028544129714112 0)
(1.0072895641357 -0.030205114982551 0)
(1.0082102585991 -0.031949967515764 0)
(1.0091278618679 -0.033534561443518 0)
(1.0102340315655 -0.035313899456691 0)
(1.0112776970386 -0.036759308357133 0)
(1.0126109810604 -0.038641849588431 0)
(1.0137753525653 -0.03982835261218 0)
(1.0154126085632 -0.04197353262034 0)
(1.0000009785814 -0.00043509184326031 0)
(1.0000194867482 -0.001287539945683 0)
(1.0000542751108 -0.0022021650554304 0)
(1.0001080530143 -0.0031993634905258 0)
(1.0001832086052 -0.0042675338949501 0)
(1.0002812339285 -0.0053847876108159 0)
(1.0004023328632 -0.0065330359046157 0)
(1.0005464639204 -0.0077034215660215 0)
(1.0007128661389 -0.0088975131977914 0)
(1.0009020472286 -0.010128793059955 0)
(1.0011139917401 -0.011417294636806 0)
(1.0013518165025 -0.012785065894226 0)
(1.0016164318494 -0.014244427686432 0)
(1.0019142209928 -0.015800715756766 0)
(1.0022447775725 -0.01744242425301 0)
(1.0026186632901 -0.019161049946207 0)
(1.0030306561779 -0.020929816547998 0)
(1.0034989405558 -0.02274684558889 0)
(1.0040079243264 -0.024574692514941 0)
(1.004590601567 -0.026437757388879 0)
(1.0052112311443 -0.02827349459463 0)
(1.0059304689196 -0.030159014415314 0)
(1.0066757322524 -0.031968140120016 0)
(1.0075573042297 -0.033880962368932 0)
(1.0084370595375 -0.035627486749779 0)
(1.0095133536027 -0.03759894175915 0)
(1.0105317556527 -0.039215851055474 0)
(1.0118478544393 -0.041320225989931 0)
(1.0130081662582 -0.042679725503586 0)
(1.0146451894322 -0.045086756057945 0)
(1.0000009971974 -0.0004533117993529 0)
(1.0000173785104 -0.0013372105205035 0)
(1.0000477902936 -0.002285627858903 0)
(1.0000947530222 -0.003320802903995 0)
(1.0001605072913 -0.0044304124327837 0)
(1.0002464189472 -0.0055908359104262 0)
(1.0003525097977 -0.0067823269054893 0)
(1.0004785281759 -0.0079951185665745 0)
(1.000623445293 -0.0092309059607627 0)
(1.0007875665857 -0.010504465880044 0)
(1.000970628826 -0.011837726423934 0)
(1.0011756773587 -0.013254905421978 0)
(1.0014034255173 -0.014769881111959 0)
(1.0016604223803 -0.016389430399374 0)
(1.0019461223591 -0.018102409191657 0)
(1.0022716710088 -0.01990141129558 0)
(1.0026317290764 -0.021759034061934 0)
(1.0030456797688 -0.023675179337201 0)
(1.0034976487483 -0.025610314978421 0)
(1.0040225963826 -0.027592548202259 0)
(1.0045840736025 -0.029554279347867 0)
(1.005245502477 -0.031580637004969 0)
(1.0059332403745 -0.033534296103957 0)
(1.0067604781327 -0.03561192079036 0)
(1.0075891736758 -0.037520573642362 0)
(1.0086177748807 -0.039683530262173 0)
(1.0095982018612 -0.041477271366352 0)
(1.0108756033218 -0.043804307878766 0)
(1.0120216548992 -0.04534960422561 0)
(1.0136316108268 -0.048018687392033 0)
(1.0000010052703 -0.00046853818100748 0)
(1.0000149250779 -0.0013775640436712 0)
(1.0000403123732 -0.0023530262907211 0)
(1.0000794627016 -0.0034189589080736 0)
(1.0001344414458 -0.0045623430687875 0)
(1.0002064666856 -0.0057578573799804 0)
(1.0002953624147 -0.0069840973841419 0)
(1.0004006491231 -0.0082303685351527 0)
(1.0005210123269 -0.0094984743498401 0)
(1.0006565248975 -0.010804464978934 0)
(1.0008066495186 -0.012172133706595 0)
(1.0009743042354 -0.013627857978384 0)
(1.0011599762793 -0.015187096293797 0)
(1.0013702922278 -0.016858191083004 0)
(1.0016045674346 -0.018630519179196 0)
(1.0018744015475 -0.020498040778531 0)
(1.0021744231559 -0.022432951397526 0)
(1.0025249830905 -0.024437192686352 0)
(1.0029102209706 -0.026469394961707 0)
(1.0033665118715 -0.028561402605299 0)
(1.0038575764305 -0.030641095322425 0)
(1.0044481491385 -0.032800932309951 0)
(1.005065814952 -0.034894085240679 0)
(1.0058232195004 -0.037131249780797 0)
(1.0065874883498 -0.039200832766161 0)
(1.0075499134201 -0.041551909496547 0)
(1.0084791045027 -0.043526462108652 0)
(1.0096952860132 -0.046073463680438 0)
(1.0108157719492 -0.047816599681177 0)
(1.0123704343672 -0.050743065913802 0)
(1.0000010034075 -0.00048076112308978 0)
(1.0000121458403 -0.0014086477207244 0)
(1.0000319036468 -0.0024044780296292 0)
(1.0000623157473 -0.003494015726307 0)
(1.0001052429713 -0.0046635748586871 0)
(1.0001617353364 -0.005886173929467 0)
(1.000231406725 -0.0071387590556776 0)
(1.0003135352342 -0.0084096930155541 0)
(1.0004065090328 -0.0097008636821315 0)
(1.0005101397436 -0.01102955964714 0)
(1.0006235932821 -0.01242139020122 0)
(1.0007496006434 -0.01390485983718 0)
(1.0008883955175 -0.015497014983813 0)
(1.0010465845191 -0.017207855494426 0)
(1.0012233484442 -0.019027444319999 0)
(1.0014305867635 -0.020951312677026 0)
(1.0016630069043 -0.02295153023895 0)
(1.0019416202767 -0.025032221778252 0)
(1.0022509697514 -0.027150549878406 0)
(1.0026281208135 -0.029341940017363 0)
(1.0030380224954 -0.031530521808842 0)
(1.0035450276396 -0.033815031199944 0)
(1.0040804398073 -0.036041340530631 0)
(1.0047526642051 -0.03843077761164 0)
(1.0054392946707 -0.040658660618255 0)
(1.0063169749351 -0.043191789153587 0)
(1.0071814127948 -0.045349760698747 0)
(1.0083136330634 -0.04811046761669 0)
(1.009396246568 -0.050062426533928 0)
(1.0108670423847 -0.053236852422004 0)
(1.0000009904098 -0.00049001505391703 0)
(1.0000090714406 -0.0014306436030329 0)
(1.0000226558278 -0.0024403348839431 0)
(1.0000434957831 -0.0035464956495668 0)
(1.0000732212973 -0.0047348014303091 0)
(1.0001126971165 -0.0059766608596039 0)
(1.0001613199861 -0.0072473937472979 0)
(1.0002181144593 -0.0085344140882233 0)
(1.0002811621578 -0.0098396655514788 0)
(1.000349986838 -0.011181621279804 0)
(1.0004234390249 -0.0125876364175 0)
(1.0005040037098 -0.014088282272976 0)
(1.0005916374908 -0.015702190939534 0)
(1.0006928203071 -0.017441076841988 0)
(1.00080661582 -0.019295860987279 0)
(1.0009450277996 -0.021263788162028 0)
(1.001103007095 -0.02331712060268 0)
(1.0013018072847 -0.025462185395694 0)
(1.0015268952317 -0.027655201722854 0)
(1.0018151056734 -0.029934727134842 0)
(1.0021338619782 -0.032222331468524 0)
(1.0025452225597 -0.034621360290413 0)
(1.0029868535593 -0.03697336313306 0)
(1.003559082422 -0.039505969083872 0)
(1.0041552860272 -0.041888102132395 0)
(1.0049301183853 -0.044594729362567 0)
(1.0057162117022 -0.04693731831075 0)
(1.0067422852631 -0.049902134333228 0)
(1.0077739549809 -0.052072621690347 0)
(1.0091329620705 -0.055481182887977 0)
(1.0000009671533 -0.00049637928380376 0)
(1.0000057375229 -0.001443855947242 0)
(1.0000126823789 -0.002461143352431 0)
(1.0000232267918 -0.0035772097661503 0)
(1.000038751472 -0.0047771135452372 0)
(1.0000599238053 -0.0060307087675613 0)
(1.0000859186333 -0.0073117170573771 0)
(1.0001154970628 -0.0086065981955822 0)
(1.0001464307448 -0.0099173240428244 0)
(1.000177933219 -0.011263488924608 0)
(1.0002085240326 -0.012674114644709 0)
(1.0002403824529 -0.014181752893846 0)
(1.0002731691038 -0.01580660695736 0)
(1.0003131230958 -0.017562125555494 0)
(1.000359222424 -0.019440256238843 0)
(1.0004233509974 -0.021440041333411 0)
(1.0005008972699 -0.023534292278482 0)
(1.0006128839236 -0.025731419956461 0)
(1.0007462581366 -0.027987415262078 0)
(1.0009366535311 -0.030343161580822 0)
(1.0011552104954 -0.032719343187933 0)
(1.0014597897868 -0.035221617792864 0)
(1.001796967797 -0.037690852746828 0)
(1.0022553037765 -0.040355971158356 0)
(1.0027488900534 -0.042886943564174 0)
(1.0034037407057 -0.04575626744693 0)
(1.0040980239266 -0.048283249958773 0)
(1.004996794252 -0.051439557347035 0)
(1.0059639455761 -0.053836825499828 0)
(1.0071847937116 -0.057461666088818 0)
(1.0000009322699 -0.00049997027963663 0)
(1.0000021884442 -0.0014487102434876 0)
(1.0000021007646 -0.0024676701987747 0)
(1.0000017507171 -0.0035872630628158 0)
(1.0000022489971 -0.0047919715508701 0)
(1.0000040517209 -0.006050160619113 0)
(1.0000061093999 -0.0073339945318307 0)
(1.0000069140212 -0.0086289728651483 0)
(1.0000039292432 -0.0099370621611306 0)
(0.99999603941236 -0.011278895105488 0)
(0.99998142541358 -0.012685074516774 0)
(0.99996190013745 -0.014190024371547 0)
(0.99993681278846 -0.015815500174251 0)
(0.99991204223292 -0.017576671424602 0)
(0.99988651336134 -0.019466674751275 0)
(0.99987176711443 -0.021486383462259 0)
(0.99986380657344 -0.023609527222139 0)
(0.9998829753789 -0.025846392544026 0)
(0.99991819318957 -0.028153537115312 0)
(1.0000029948047 -0.030573214127339 0)
(1.0001133564154 -0.033027027084303 0)
(1.0003011761939 -0.035620534158881 0)
(1.000524239152 -0.03819760329001 0)
(1.0008560439969 -0.040983384797038 0)
(1.0012355889743 -0.043656565567042 0)
(1.0017546826439 -0.046675931897728 0)
(1.0023441257251 -0.049385640941045 0)
(1.0030958784575 -0.052718332932054 0)
(1.0039845743568 -0.055349072440526 0)
(1.0050431206814 -0.059168720557769 0)
(1.0000008898224 -0.00050093719328042 0)
(0.99999846575493 -0.0014457202348039 0)
(0.99999104534064 -0.0024608185114206 0)
(0.99997933311208 -0.0035779738196113 0)
(0.99996414935589 -0.0047811220452685 0)
(0.99994573069642 -0.0060372172825741 0)
(0.99992282043696 -0.0073169301376385 0)
(0.9998936413568 -0.0086048018244857 0)
(0.99985535555303 -0.0099027567902958 0)
(0.99980648519295 -0.011232347664374 0)
(0.99974486881591 -0.012625661785707 0)
(0.99967189005524 -0.014118859174489 0)
(0.99958658645696 -0.015735241785727 0)
(0.99949435931291 -0.0174916475708 0)
(0.99939410132044 -0.019382570549888 0)
(0.99929681907991 -0.021410699235126 0)
(0.99919923603928 -0.02355102928338 0)
(0.99912067650962 -0.025815521607614 0)
(0.99905235088383 -0.028161960436321 0)
(0.99902500595084 -0.030633239441075 0)
(0.99902028639899 -0.033153231292247 0)
(0.99908270344669 -0.035825637500609 0)
(0.99918304271358 -0.038500138387117 0)
(0.99937716409891 -0.041394042552544 0)
(0.99963211798199 -0.044201357089404 0)
(1.0000012533465 -0.047357118489415 0)
(1.000473484673 -0.050245981545805 0)
(1.0010603553751 -0.053738621922551 0)
(1.0018567030449 -0.056607784334479 0)
(1.0027318298587 -0.06059878126975 0)
(1.0000008357165 -0.00049944918781564 0)
(0.9999946061814 -0.0014354528604848 0)
(0.99997964225219 -0.0024415967780453 0)
(0.99995624153719 -0.0035508221022269 0)
(0.99992490611316 -0.0047465429046625 0)
(0.99988562851911 -0.0059943705359071 0)
(0.99983696681894 -0.0072635531764467 0)
(0.99977689563115 -0.008537693771952 0)
(0.99970232904813 -0.0098186751785145 0)
(0.99961138892756 -0.011128839500721 0)
(0.99950156469557 -0.012501651011 0)
(0.99937370117083 -0.013974799907384 0)
(0.9992265497776 -0.015573149079252 0)
(0.99906489801199 -0.017315086380638 0)
(0.99888765469896 -0.019196683830988 0)
(0.99870510900427 -0.021222339725425 0)
(0.9985147635664 -0.023368667144169 0)
(0.99833469395307 -0.025649135565283 0)
(0.99815851066574 -0.028023145820275 0)
(0.99801380397496 -0.030534029333749 0)
(0.99788821549609 -0.033108278912242 0)
(0.99781815084461 -0.035847478539971 0)
(0.99778812657116 -0.038607716812318 0)
(0.99783520328521 -0.041597441931151 0)
(0.99795576875771 -0.044528296496793 0)
(0.99816261946618 -0.047807472759334 0)
(0.9985057184158 -0.050867907456298 0)
(0.9989115671456 -0.054504647224342 0)
(0.99960169509159 -0.05761332654377 0)
(1.000275994974 -0.061751505608659 0)
(1.0000007674634 -0.00049570545358338 0)
(0.99999063380954 -0.0014185205496208 0)
(0.99996797542418 -0.0024110167104891 0)
(0.99993267917335 -0.0035072461257485 0)
(0.99988491016867 -0.0046901764830414 0)
(0.99982438648365 -0.0059241541051499 0)
(0.99974948549339 -0.0071770429782034 0)
(0.99965791429486 -0.008431461064422 0)
(0.99954641732433 -0.0096892316314624 0)
(0.99941271265292 -0.010973389003941 0)
(0.99925400746713 -0.012318739904616 0)
(0.99907043902981 -0.01376426436771 0)
(0.9988605297953 -0.015336429814598 0)
(0.99862820636611 -0.017054940654261 0)
(0.99837257343028 -0.018917772408262 0)
(0.99810288647687 -0.020930725497951 0)
(0.99781763830362 -0.023072534593891 0)
(0.99753331429982 -0.025357827112908 0)
(0.99724604321898 -0.027747995453351 0)
(0.99698009901391 -0.030286854008679 0)
(0.9967288701597 -0.032903052407359 0)
(0.99652109621491 -0.035697392860499 0)
(0.99635378702025 -0.038529958103308 0)
(0.99624699094381 -0.041604434138357 0)
(0.99622353396701 -0.044643774423732 0)
(0.99625906642342 -0.048036901494407 0)
(0.99646103032128 -0.051252551635171 0)
(0.99667255690352 -0.055023229511216 0)
(0.99724235719506 -0.058360049637746 0)
(0.99769786607381 -0.062619555066608 0)
(1.0000006820202 -0.00048999939180108 0)
(0.99998668745595 -0.0013958322333038 0)
(0.99995632522943 -0.002370417434425 0)
(0.99990899444527 -0.0034488433371334 0)
(0.99984454718835 -0.0046138604946045 0)
(0.99976250278649 -0.0058287633806752 0)
(0.99966115356014 -0.0070601631053022 0)
(0.99953792144295 -0.0082896145093645 0)
(0.99938934458152 -0.0095187218295976 0)
(0.99921262576031 -0.010770937799858 0)
(0.99900479847649 -0.012082333438791 0)
(0.99876516292863 -0.013492980404367 0)
(0.99849216256328 -0.015031109841146 0)
(0.99818849196207 -0.016717463285687 0)
(0.99785383434951 -0.018552404498131 0)
(0.99749581350323 -0.020542552994078 0)
(0.99711454309867 -0.022669671027552 0)
(0.99672406859941 -0.02494853194106 0)
(0.99632372246034 -0.02734376756277 0)
(0.99593385276524 -0.029898579462878 0)
(0.99555341802493 -0.032544522578121 0)
(0.99520462962485 -0.035381952704436 0)
(0.99489381801409 -0.03827242548658 0)
(0.99462966810197 -0.041421732896308 0)
(0.99445193341852 -0.044549471577207 0)
(0.99431264167922 -0.04805477114526 0)
(0.99435974914493 -0.051393103823188 0)
(0.99437146658954 -0.055313733593285 0)
(0.99481101911987 -0.0588281335665 0)
(0.99502371965718 -0.063228076823966 0)
(1.0000005582699 -0.00048273860624808 0)
(0.99998302828856 -0.0013688796887718 0)
(0.9999454138182 -0.0023222747859977 0)
(0.99988619805758 -0.0033788047234494 0)
(0.99980484555488 -0.0045211172709236 0)
(0.99970085315996 -0.0057117433209545 0)
(0.99957268532392 -0.0069163333422758 0)
(0.9994176912322 -0.0081154670324023 0)
(0.99923228282109 -0.0093107473930975 0)
(0.99901299892104 -0.010525782615846 0)
(0.99875653728816 -0.011797526863601 0)
(0.99846114877171 -0.013166798482419 0)
(0.99812529558296 -0.014663681502584 0)
(0.99775019103169 -0.016309720442181 0)
(0.99733650820228 -0.018108170214473 0)
(0.99688963975792 -0.02006588192952 0)
(0.99641215679136 -0.022168998460982 0)
(0.99591444875766 -0.02443073285599 0)
(0.99540042107306 -0.026821890556294 0)
(0.99488489171512 -0.029381417439507 0)
(0.99437358929246 -0.032049054345785 0)
(0.99388172588009 -0.034918886105179 0)
(0.99342335942689 -0.037859838844592 0)
(0.99300048161933 -0.041077665355219 0)
(0.99265925082349 -0.04428073002187 0)
(0.99234673094137 -0.047911667654078 0)
(0.99221947324834 -0.0513279646642 0)
(0.99204003898967 -0.055482891893131 0)
(0.99233070222315 -0.059032683989374 0)
(0.99230794320769 -0.06383770619757 0)
(1.0000003058008 -0.0004747511494985 0)
(0.99997930317225 -0.0013401194913166 0)
(0.99993508487713 -0.0022716912199871 0)
(0.99986453231619 -0.003306373046417 0)
(0.99976650848942 -0.004426239579595 0)
(0.99964052977863 -0.0055924190855783 0)
(0.99948544471192 -0.0067694843991765 0)
(0.99929846350391 -0.0079364147042091 0)
(0.9990759275367 -0.0090953192885316 0)
(0.99881425161043 -0.010270620397056 0)
(0.99850978547679 -0.011500924000373 0)
(0.99815955935689 -0.012828350646804 0)
(0.99776175305589 -0.01428535781548 0)
(0.99731619781351 -0.015894194790356 0)
(0.99682430080989 -0.017660970425316 0)
(0.99628929677671 -0.019591974290266 0)