/*--------------------------------*- C++ -*----------------------------------*\
| =========                 |                                                 |
| \\      /  F ield         | OpenFOAM: The Open Source CFD Toolbox           |
|  \\    /   O peration     | Version:  2112                                  |
|   \\  /    A nd           | Website:  www.openfoam.com                      |
|    \\/     M anipulation  |                                                 |
\*---------------------------------------------------------------------------*/
FoamFile
{
    version     2.0;
    format      ascii;
    arch        "LSB;label=32;scalar=64";
    class       surfaceScalarField;
    location    "5.3";
    object      phi;
}
// * * * * * * * * * * * * * * * * * * * * * * * * * * * * * * * * * * * * * //

dimensions      [0 3 -1 0 0 0 0];

oriented        oriented;

internalField   nonuniform List<scalar> 
43645
(
0.39512528215059
-6.4090263462442e-06
0.39514488154182
-1.9599320354516e-05
0.39517802831181
-3.3146693399634e-05
0.39522521239779
-4.7184006814462e-05
0.3952870925972
-6.1880119752799e-05
0.39536451092053
-7.7418244245081e-05
0.39545834006879
-9.3829070388991e-05
0.39556927579069
-0.0001109356454322
0.395697700253
-0.00012842438741203
0.39584366497262
-0.00014596464626417
0.39600694326805
-0.00016327822368567
0.39618711570387
-0.00018017236558938
0.39638362883311
-0.00019651306060789
0.39659585871619
-0.00021222981588487
0.39682312321542
-0.00022726443352615
0.39706474158326
-0.0002416183034477
0.39731999734117
-0.00025525569487335
0.39758823053902
-0.00026823313592799
0.39786870349883
-0.0002804728990436
0.39816080712231
-0.00029210356360523
0.39846373123152
-0.00030292405026429
0.39877699114172
-0.00031325985190077
0.39909963886367
-0.000322647664343
0.39943154221791
-0.00033190329705291
0.39977143612541
-0.00033989385079165
0.40011996289753
-0.00034852671560788
0.40047492312013
-0.00035496016640155
0.40083854983351
-0.00036362665791887
0.40120620250993
-0.00036765262232606
-0.00037737508701556
0.40158357765178
0.37294844313988
-1.2297315596828e-05
0.37296651827078
-3.767433435907e-05
0.37299736402506
-6.3992328622429e-05
0.37304145537909
-9.1275241813016e-05
0.37309942893872
-0.00011985356167116
0.37317211133337
-0.00015010052301084
0.37326036531004
-0.00018208293329693
0.37336488535393
-0.00021545557768799
0.37348606677981
-0.00024960570392577
0.3736239898021
-0.00028388756132901
0.37377846965447
-0.00031775797110239
0.37394913830163
-0.00035084090991498
0.37413549950064
-0.00038287415899289
0.37433698952626
-0.00041371974288748
0.37455298771593
-0.00044326252663798
0.37478287526256
-0.00047150575531387
0.37502599737365
-0.00049837771302042
0.37528175483515
-0.0005239905059754
0.37554946875655
-0.00054818673050707
0.37582858675815
-0.00057122147641997
0.37611835363385
-0.000592690838366
0.3764183372702
-0.00061324340145419
0.37672764285266
-0.00063195316086398
0.37704618585358
-0.00065044621251211
0.37737275856429
-0.00066646647662305
0.37770804666936
-0.00068381473598408
0.37804993096241
-0.0006968443751061
0.37840067419378
-0.00071436980605669
0.37875578047249
-0.00072275882085431
-0.00074255095864477
0.3791209564264
0.3520165566816
-1.7956354882677e-05
0.35203388806258
-5.5005592434868e-05
0.3520632792749
-9.338341743335e-05
0.35210518406129
-0.00013317990578459
0.35216022221201
-0.00017489159206991
0.35222919906845
-0.00021907726144752
0.3523129594721
-0.00026584322152507
0.35241219479284
-0.00031469078547495
0.35252731860845
-0.00036472940920989
0.35265845199148
-0.00041502083650234
0.35280546936227
-0.00046477523668024
0.35296807536413
-0.0005134468089763
0.35314585370725
-0.00056065240186933
0.35333832582515
-0.00060619176278032
0.35354495631339
-0.000649892919233
0.35376521445333
-0.00069176380154295
0.35399852879189
-0.00073169195991347
0.35424438812406
-0.00076984974803006
0.35450218926465
-0.00080598778261677
0.35477146769614
-0.00084049982053853
0.35505152892667
-0.00087275198274651
0.35534203396711
-0.00090374835640632
0.35564212124197
-0.00093204035105245
0.35595181906966
-0.00096014395578746
0.35626989847961
-0.00098454580261333
0.35659721076952
-0.0010111269418104
0.35693150307643
-0.0010311365980795
0.35727532386277
-0.0010581905092409
0.35762380598207
-0.0010712408600266
-0.0011019001469846
0.35798315525333
0.33225942516495
-2.333745349326e-05
0.33227589681134
-7.1477127156757e-05
0.33230376770367
-0.0001212541974328
0.33234345300271
-0.00017286509341922
0.3323955570549
-0.00022699553471691
0.33246087870359
-0.00028439880268791
0.33254025899355
-0.00034522340641198
0.33263439538716
-0.000408827076297
0.33274372664103
-0.00047406056279352
0.33286842229812
-0.00053971639562133
0.33300842526422
-0.00060477810735302
0.33316352422664
-0.00066854567824629
0.33333339531372
-0.00073052339827081
0.33351765925937
-0.00079045561987933
0.33371588004888
-0.00084811362244373
0.333927631043
-0.00090351471117565
0.33415243843176
-0.0009564992661299
0.33438989662087
-0.0010073078560157
0.33463949098679
-0.001055582068943
0.33490086499735
-0.0011018737524917
0.33517339340498
-0.0011452803128896
0.33545685619081
-0.0011872110652916
0.33575042447066
-0.0012256085546669
0.33605427980605
-0.0012639992150941
0.3363671520021
-0.0012974179229272
0.33669013185316
-0.0013341067169251
0.33702077443539
-0.0013617791044187
0.33736206818403
-0.0013994841826387
0.33770865142344
-0.0014178240269429
-0.0014608567014215
0.33806760805334
0.31361114517463
-2.8425149656257e-05
0.31362671163344
-8.7043482881493e-05
0.31365300547442
-0.00014754793504523
0.31369040635802
-0.00021026587478751
0.31373950078585
-0.00027608986230852
0.31380108037702
-0.00034597829579555
0.31387598623769
-0.00042012917148633
0.3139649293965
-0.0004977701418813
0.3140683832756
-0.00057751435125054
0.31418657661618
-0.00065790964796875
0.31431953238558
-0.0007377337911344
0.31446713591434
-0.00081614912373818
0.31462916877836
-0.00089255618152283
0.31480536499186
-0.00096665175474384
0.31499540157286
-0.0010381501270569
0.31519897117023
-0.001107084233932
0.31541571173647
-0.0011732397596321
0.31564534052289
-0.0012369365710118
0.31588744521482
-0.0012976866908588
0.3161417969358
-0.0013562254042878
0.31640785010319
-0.001411333412029
0.31668552800746
-0.0014648889016359
0.31697403801164
-0.0015141184914129
0.31727375156386
-0.0015637126997352
0.3175833474874
-0.0016070137789698
0.31790421815517
-0.0016549773166534
0.31823368381453
-0.0016912446954675
0.31857527727684
-0.0017410775768738
0.31892301944532
-0.0017655661295095
-0.0018228711297368
0.31928503394299
0.2960094818108
-3.3205007806928e-05
0.29602408623265
-0.00010164780791198
0.29604870725203
-0.00017216885746962
0.29608368538006
-0.00024524390699514
0.29612958900605
-0.00032199339436438
0.29618720393892
-0.00040359313674646
0.29625737346623
-0.00049029860919243
0.29634082551975
-0.00058122210800022
0.29643807327588
-0.00067476202243749
0.29654941171662
-0.00076924800603742
0.29667495243516
-0.00086327442950758
0.29681468734845
-0.00095588395908514
0.29696851421905
-0.0010463829766113
0.29713629228664
-0.0011344297488545
0.2973178237206
-0.0012196814897286
0.29751293424418
-0.0013021946879277
0.29772138665684
-0.0013816921045385
0.29794303671299
-0.0014585865606792
0.29817758762361
-0.0015322375363857
0.29842495622847
-0.0016035939448559
0.2986846881576
-0.0016710652777894
0.29895687266865
-0.0017370733496411
0.29924076047385
-0.0017980062340624
0.29953694498528
-0.0018598971484786
0.29984405159536
-0.0019141203264566
0.3001638225838
-0.0019747482419736
0.30049331931619
-0.0020207413644999
0.30083669557886
-0.0020844537763952
0.30118729171202
-0.0021161622015198
-0.0021899782129025
0.30155439885998
0.27939568369011
-3.7654093035453e-05
0.27940924761437
-0.00011521164364008
0.27943206365821
-0.000194984812863
0.27946442946476
-0.00027760962625414
0.27950689286752
-0.0003644567116868
0.27956023209343
-0.00045693227918201
0.27962529173973
-0.00055535817425832
0.27970281699023
-0.00065874727938407
0.27979336258871
-0.00076530754420628
0.27989729281316
-0.00087317815595892
0.28001481278044
-0.00098079432470042
0.28014602773738
-0.0010870988460934
0.28029095954658
-0.0011913147182082
0.28044960182203
-0.0012930719586488
0.28062189164025
-0.0013919712443887
0.28080779905009
-0.0014881020358061
0.28100722322236
-0.0015811162165607
0.28122017209414
-0.0016715353733806
0.2814464777607
-0.00175854314513
0.2816862197899
-0.0018433359169103
0.28193904904351
-0.0019238944750508
0.28220524309387
-0.0020032673438259
0.28248410809003
-0.0020768711743849
0.28277648927616
-0.0021522782784848
0.28308096536181
-0.0022185963558989
0.2833996671121
-0.0022934499353644
0.28372939426128
-0.0023504684563658
0.28407497041357
-0.0024300298713392
0.28442904390648
-0.0024702356386774
-0.0025630670506284
0.28480213280386
0.26371430060976
-4.1745173991913e-05
0.26372673600542
-0.00012764695719367
0.2637475983451
-0.00021584707056203
0.26377713855281
-0.0003071497530244
0.26381587955601
-0.00040319763562857
0.26386458745365
-0.00050564009927126
0.26392410388924
-0.00061487453430982
0.26399518803534
-0.000729831351833
0.26407843494165
-0.00084855437905027
0.26417427935992
-0.00096902250473265
0.26428302276272
-0.0010895376602619
0.26440488663495
-0.0012089626530464
0.26454002167753
-0.0013264496976981
0.26468856160504
-0.0014416118248755
0.26485058592767
-0.0015539955077128
0.26502621710623
-0.0016637331565654
0.26521550069814
-0.0017703997523187
0.26541860652967
-0.0018746411498736
0.26563550870449
-0.0019754452661627
0.26586646067016
-0.0020742878294683
0.26611123452633
-0.0021686682789143
0.26637031196058
-0.0022623447260108
0.26664307050839
-0.0023496296705201
0.26693063172863
-0.0024398394468709
0.26723154339862
-0.002519507974035
0.26754835611927
-0.0026102626036199
0.267877632024
-0.0026797443084125
0.26822488141041
-0.0027772792051287
0.26858210960482
-0.0028274637819618
-0.0029419920351421
0.26896103464431
0.24891299821095
-4.5450623375176e-05
0.24892421787682
-0.00013886654854871
0.2489429780104
-0.00023460712979574
0.24896947902925
-0.00033365069849825
0.24900421351185
-0.00043793204636691
0.2490479288599
-0.00054935537700948
0.24910145731122
-0.00066840291714131
0.24916556663849
-0.00079394061230882
0.2492408884613
-0.00092387613705851
0.24932792520681
-0.0010560591872347
0.2494270740186
-0.0011886864111061
0.24953867324581
-0.0013205618210885
0.24966300474289
-0.0014507811376185
0.24980034290072
-0.0015789499271878
0.2499509140415
-0.0017045665947894
0.25011499555124
-0.0018278146139583
0.25029278784417
-0.0019481919944222
0.25048462541042
-0.0020664786662918
0.25069064033371
-0.0021814601407585
0.25091125951418
-0.0022949069618307
0.25114640499964
-0.0024038137169996
0.25139675761561
-0.0025126972947654
0.25166180459133
-0.0026146765993443
0.25194294390591
-0.0027209787143334
0.25223872397878
-0.0028152879997586
0.25255213147598
-0.0029236700530992
0.25287953125542
-0.0030071440398266
0.2532271055625
-0.0031248534641848
0.25358633823812
-0.0031866964108231
-0.00332571104028
0.25397005729391
0.23494238213326
-4.874513089839e-05
0.23495230748627
-0.0001487918331071
0.2349688315291
-0.00025113110432192
0.2349921005837
-0.00035691968559284
0.23502257084688
-0.0004684022433483
0.23506096321987
-0.00058774768508039
0.23510809232985
-0.00071553196378065
0.23516472710436
-0.00085057532491518
0.2352315294445
-0.00099067841702453
0.23530906424592
-0.0011335939300355
0.23539782018661
-0.0012774422949983
0.23549824836942
-0.001420989948663
0.23561075995594
-0.001563292670714
0.23573576828488
-0.0017039582041632
0.23587364731583
-0.0018424455754247
0.23602482646922
-0.0019789937182805
0.23618966759604
-0.0021130330735674
0.23636866461117
-0.0022454756346958
0.23656212726722
-0.0023749227511629
0.23677063653576
-0.0025034161853095
0.23699431741582
-0.0026274945527274
0.23723399197905
-0.0027523718138889
0.23748936919895
-0.0028700537755241
0.2377620203849
-0.0029936298564325
0.23805063172454
-0.003103899295627
0.23835856951158
-0.0032316077959503
0.23868203886185
-0.0033306133457422
0.23902791394948
-0.0034707285075841
0.23938729290539
-0.0035460753237145
-0.0037123032938551
0.23977388520571
0.2217558326552
-5.1607936413038e-05
0.22176440006426
-0.00015735917996903
0.22177858010464
-0.00026531108259349
0.22179846201855
-0.00037680153806414
0.22182445958648
-0.00049439975095298
0.22185725878606
-0.00062054682540457
0.22189764729977
-0.00075592041957933
0.22194638621755
-0.00089931418597958
0.22200415922537
-0.0010484513696334
0.22207158607847
-0.0012010207292339
0.22214923935136
-0.001355095515577
0.22223767637429
-0.0015094269206284
0.22233743055725
-0.0016630468043013
0.22244904855233
-0.0018155761511296
0.2225730471634
-0.0019664441398609
0.22271000473343
-0.0021159512427629
0.22286043969943
-0.0022634679952871
0.22302500565568
-0.0024100415474925
0.22320418599601
-0.002554103049028
0.22339872262954
-0.0026979527769094
0.22360894565564
-0.0028377175375592
0.22383581564731
-0.0029792417644981
0.22407931367021
-0.003113551757735
0.2243410983695
-0.0032554145149257
0.22462019245192
-0.0033829933373338
0.22492009417335
-0.0035315094763209
0.22523714594412
-0.0036476650753106
0.22557877925662
-0.0038123617790481
0.22593580678014
-0.0039031028072914
-0.0040991399901291
0.22632264352001
0.20930934846367
-5.4024395401026e-05
0.2093165141354
-0.00016452479463393
0.20932827689379
-0.00027707378394286
0.20934466666727
-0.00039319125499651
0.20936604911287
-0.00051578214090721
0.20939306684791
-0.00064756450562745
0.20942647096903
-0.00078932448698427
0.20946700486343
-0.00093984802762296
0.20951536405853
-0.001096810513229
0.20957221321887
-0.0012578698391373
0.20963819844401
-0.0014210806916494
0.20971397316108
-0.0015852015897485
0.2098001824218
-0.0017492560184589
0.20989749654113
-0.0019128902249793
0.21000656499073
-0.0020755125452758
0.2101281068591
-0.0022374930679215
0.21026278945639
-0.0023981505505026
0.21041142135087
-0.0025586734006737
0.21057464773717
-0.0027173293949481
0.21075338260786
-0.0028766876077453
0.21094813218391
-0.0030324670744101
0.2111600448533
-0.0031911543949622
0.21138931127767
-0.0033428181435636
0.21163775906753
-0.0035038622662451
0.21190472695109
-0.0036499611825103
0.21219377048222
-0.003820552968837
0.2125016708359
-0.0039555653903455
0.21283600233145
-0.0041466932362058
0.21318769087313
-0.0042547913116159
-0.004483029206125
0.21357158012996
0.19756139919709
-5.5987012453481e-05
0.19756714203345
-0.00017026757864853
0.19757645395499
-0.00028638565306914
0.19758930442765
-0.00040604167558417
0.19760600594635
-0.00053248360825377
0.19762714976948
-0.00066870827802775
0.19765344100768
-0.00081561567533262
0.1976855952121
-0.00097200218294402
0.19772430897585
-0.0011355242289126
0.19777028015745
-0.0013038409735205
0.19782421591596
-0.0014750164040829
0.19788685247062
-0.0016478380992538
0.19795893308446
-0.0018213365883161
0.19804123784662
-0.001995194944069
0.1981345357449
-0.0021688104016151
0.19823967291668
-0.0023426301985974
0.19835745318646
-0.0025159307801995
0.19848882920715
-0.0026900493819734
0.19863459635665
-0.0028630965059168
0.198795836138
-0.0030379273510674
0.19897321026217
-0.0032098411611921
0.19916808349437
-0.0033860275900669
0.19938078703476
-0.0035555216472575
0.19961343743132
-0.0037365126261816
0.19986552068434
-0.0039020443990859
0.20014083739687
-0.0040958696447835
0.20043655865745
-0.0042512866143459
0.200760200196
-0.0044703347384765
0.20110334370452
-0.004597934784819
-0.0048603933848713
0.20148070792198
0.18647278640374
-5.7495999978554e-05
0.18647710941399
-0.00017459054040834
0.18648397873196
-0.00029325492236335
0.18649330342005
-0.00041536631521213
0.18650533904215
-0.00054451918242991
0.18652061857992
-0.00068398776831536
0.1865397923708
-0.00083478941944707
0.18656353818346
-0.00099574794938991
0.18659254255985
-0.0011645285599257
0.18662752387805
-0.0013388222470136
0.18666923636627
-0.0015167288485453
0.18671848360843
-0.0016970852983959
0.1867760911017
-0.0018789440395629
0.18684293183493
-0.0020620356360237
0.18691987748017
-0.0022457560065657
0.18700788441599
-0.0024306370948607
0.18710787506749
-0.002615921393057
0.18722093183287
-0.0028031061093775
0.18734798023683
-0.0029901448726899
0.18749026440964
-0.0031802114872409
0.18764857486834
-0.0033681515838881
0.18782450032721
-0.0035619530133127
0.18801848121319
-0.0037495024980664
0.18823294674746
-0.0039509781254563
0.18846747896509
-0.0041365765819599
0.18872621322505
-0.0043546038699705
0.18900659001587
-0.0045316633704451
0.18931611614055
-0.0047798608287867
0.18964731582745
-0.0049291344382142
-0.0052272149246353
0.19001413740402
0.17600651188323
-5.8559080250368e-05
0.17600944251576
-0.00017752112771105
0.1760139183525
-0.00029773071361605
0.17601979062509
-0.00042123854240578
0.17602725515569
-0.00055198366806144
0.1760367808175
-0.00069351338549199
0.17604895588778
-0.00084696444566771
0.17606441144651
-0.0010112034645071
0.17608381310148
-0.0011839301719885
0.17610788664653
-0.0013628957497042
0.17613741836613
-0.001546260526583
0.17617326244338
-0.0017329293346989
0.176216308685
-0.001921990241061
0.17626750422648
-0.0021132311380158
0.17632780361618
-0.0023060553576273
0.17639825444724
-0.0025010878879199
0.17647987580348
-0.0026975427121187
0.17657386222646
-0.0028970924958042
0.17668124602438
-0.003097528634845
0.1768034162876
-0.0033023817152687
0.1769412797966
-0.0035060150583724
0.17709661432647
-0.0037172875091372
0.17726999187852
-0.0039228800166026
0.17746408048569
-0.0041450666994196
0.17767861756334
-0.0043511136267124
0.17791800983889
-0.0045939961127261
0.1781799937133
-0.0047936472121439
0.17847200693184
-0.0050718740149806
0.17878779257269
-0.0052449200474517
-0.0055793081524665
0.17913988583541
0.16612765372999
-5.9190789941604e-05
0.16612924151823
-0.00017910887337225
0.16613141376193
-0.00029990291445566
0.16613396371257
-0.00042378845024555
0.16613702678342
-0.00055504669648933
0.16614100378255
-0.00069749034252096
0.16614641490637
-0.00085237552795331
0.16615383684725
-0.0010186253642925
0.16616390447315
-0.0011939977574677
0.16617733850606
-0.0013763297427241
0.16619494221876
-0.0015638642001302
0.16621760319074
-0.0017555902680651
0.16624625657479
-0.0019506435872264
0.16628190383603
-0.0021488783619217
0.16632556089106
-0.002349712376067
0.16637834531849
-0.0025538722793306
0.16644134977903
-0.0027605471374093
0.16651585717918
-0.0029715998613171
0.16660298671556
-0.0031846581373798
0.16670423976593
-0.0034036347324419
0.16682063498473
-0.0036224102447424
0.16695408708382
-0.0038507395764192
0.16710532406466
-0.0040741169662941
0.16727716916705
-0.0043169117711452
0.16746958135346
-0.0045435257829057
0.1676870840881
-0.0048114988173964
0.16792793123659
-0.0050344943308103
0.16819910108177
-0.0053430438306673
0.16849610451938
-0.0055419234560793
-0.0059125987108916
0.16882939511005
0.15680325027953
-5.941234131616e-05
0.15680356298077
-0.00017942153414411
0.15680355142944
-0.00029989132244436
0.15680295676149
-0.00042319374179497
0.15680185384671
-0.00055394374171729
0.15680057215297
-0.00069620860926934
0.15679955911202
-0.00085136244820526
0.15679933051617
-0.0010183967302693
0.15680048146571
-0.0011951486696482
0.15680371569316
-0.0013795639334592
0.15680983895281
-0.0015699874238625
0.15681975540892
-0.0017655066888391
0.15683442688678
-0.0019653150304694
0.15685488897724
-0.0021693404182882
0.15688219769458
-0.0023770210599876
0.15691751726402
-0.0025891918159016
0.15696199194518
-0.0028050217864205
0.15701696445229
-0.0030265723369203
0.15708362211248
-0.0032513157668895
0.15716354136957
-0.0034835539596137
0.15725784268523
-0.0037167115313737
0.15736852630456
-0.0039614231675535
0.15749649221484
-0.0042020828492327
0.15764461459359
-0.0044650341233037
0.15781321044245
-0.004712121605805
0.15800658240033
-0.0050048707497706
0.15822397609186
-0.0052518879970564
0.15847123098094
-0.0055902986947222
0.15874624383181
-0.0058169362820969
-0.0062231989475477
0.1590568440966
0.14800218826606
-5.9249640566742e-05
0.14800131147044
-0.00017854469922451
0.14799926580586
-0.00029784561851111
0.14799574441434
-0.00041967231146663
0.14799076304652
-0.00054896233600104
0.14798457984742
-0.00069002537318718
0.14797756746426
-0.0008443500291921
0.14797017604224
-0.0010110052734306
0.14796295335109
-0.0011879259448639
0.14795657519142
-0.0013731857411186
0.14795183627863
-0.0015652484794196
0.14794964096726
-0.0017633113465662
0.14795096005973
-0.0019666340928247
0.14795684292844
-0.0021752232574601
0.14796836570865
-0.0023885438113355
0.14798671489428
-0.0026075409732172
0.14801306561076
-0.0028313724753141
0.14804879085524
-0.0030622975545108
0.14809512622496
-0.0032976511106154
0.14815368755276
-0.0035421152623411
0.1482256810928
-0.003788705047411
0.14831313903571
-0.0040488810875651
0.14841715259755
-0.00430609638933
0.14854050198922
-0.0045883834943135
0.14868406497962
-0.0048556845764984
0.14885150767591
-0.005172313427083
0.14904356236092
-0.005443942663456
0.14926437456816
-0.005811110883514
0.14951455820975
-0.0060671199049231
-0.0065075271746177
0.14979888645892
0.13969510078742
-5.8733130786227e-05
0.13969313123214
-0.00017657510351262
0.13968922200663
-0.00029393635266624
0.13968302363171
-0.00041347389738357
0.13967449483136
-0.00054043349816258
0.13966382207364
-0.00067935257969255
0.13965130258252
-0.00083183050417177
0.13963731816157
-0.00099702082033732
0.13962236399182
-0.0011729717447381
0.13960707876881
-0.001357900489209
0.13959223469374
-0.0015504043768338
0.13957872096926
-0.0017497975955913
0.13956750174999
-0.0019554148480315
0.13955962030439
-0.002167341787007
0.13955615525312
-0.0023850787359531
0.13955829054498
-0.0026096762415596
0.13956721329834
-0.0028402952059148
0.13958429660021
-0.0030793808344058
0.13961080513734
-0.0033241596267756
0.13964835972392
-0.0035796698290897
0.13969823521155
-0.0038385805165322
0.13976244651566
-0.0041130923746223
0.13984228124085
-0.0043859310990173
0.1399403035255
-0.0046864057650179
0.14005804843239
-0.0049734294708444
0.14019833664252
-0.0053126016258462
0.14036353192601
-0.0056091379361895
0.14055597511129
-0.0060035540581382
0.14077910138247
-0.0062902461645507
-0.0067624475050168
0.14103402172786
0.13185426682027
-5.7895179589194e-05
0.13185130982859
-0.00017361806514483
0.13184572195269
-0.00028834842985709
0.13183711732205
-0.00040486922174334
0.13182540075721
-0.00052871689106442
0.13181068824694
-0.00066464003002044
0.13179320250209
-0.00081434472284579
0.13177325536164
-0.00097707364608244
0.1317512858071
-0.0011510021589233
0.13172788788933
-0.001334502542253
0.13170380204895
-0.0015263185090746
0.13167988811525
-0.00172588363588
0.13165709078079
-0.0019326174887051
0.13163642783344
-0.0021466788156232
0.13161896701368
-0.0023676178929674
0.13160586383543
-0.0025965730407581
0.13159830472948
-0.0028327360782667
0.13159762821183
-0.0030787042959619
0.13160511727217
-0.0033316486675131
0.1316223564054
-0.0035969089441289
0.13165067750127
-0.0038669015958912
0.13169204141627
-0.0041544562750371
0.13174789878288
-0.0044417884531368
0.13182059826201
-0.004759105233856
0.13191216490174
-0.00506499610233
0.13202473732253
-0.0054251740402152
0.13216189600041
-0.0057462966087424
0.13232456627631
-0.006166224328905
0.13251895655816
-0.0064846364399077
-0.0069856009858292
0.13274211004919
0.12445351991126
-5.6768697874288e-05
0.12444968318486
-0.00016978127654931
0.12444260842979
-0.00028127361101069
0.124431879021
-0.00039413975137835
0.12441734943897
-0.00051418725124096
0.12439906920632
-0.00064635974362792
0.12437718844289
-0.00079246390971965
0.1243519470981
-0.00095183225520884
0.12432372600817
-0.0011227810261413
0.12429306954468
-0.0013038460385216
0.12426067934252
-0.0014939282688517
0.12422737330704
-0.0016925775639343
0.12419406688827
-0.0018993110347826
0.12416173368848
-0.0021143455816453
0.1241314216884
-0.0023373058595897
0.12410422899389
-0.0025693803137507
0.12408133817213
-0.0028098452249866
0.12406400779253
-0.003061373885973
0.12405355057144
-0.0033211914175023
0.12405144918088
-0.0035948075264539
0.12405911164699
-0.0038745640370968
0.12407839176552
-0.0041737363712541
0.12411084169914
-0.0044742383672908
0.12415875888907
-0.0048070224073636
0.12422419405288
-0.0051304312527085
0.12430933020951
-0.0055103101861521
0.12441765943981
-0.0058546258302916
0.12454990514585
-0.0062984700268399
0.1247138435066
-0.0066485747911844
-0.0071757963028789
0.12490403883756
0.11746816166126
-5.5386503923678e-05
0.11746355188941
-0.00016517141441217
0.11745518535027
-0.00027290697821346
0.11744261638854
-0.00038157069801464
0.11742564785079
-0.00049721862621312
0.11740427278812
-0.00062498459858283
0.11737857674243
-0.00076676778646188
0.11734872462273
-0.00092198006216175
0.11731503738952
-0.0010890937231916
0.11727800687562
-0.0012668154577512
0.1172382895518
-0.0014542108804263
0.11719665143914
-0.0016509393883714
0.11715397088761
-0.0018566304216753
0.11711116276819
-0.0020715374016911
0.11706925036635
-0.0022953933981759
0.11702924690163
-0.0025293767904355
0.11699233479202
-0.0027729330579167
0.1169596356824
-0.0030286747203818
0.11693253043902
-0.0032940861200067
0.11691228965179
-0.0035745666875755
0.11690049654661
-0.0038627708832221
0.11689873191891
-0.0041719716984567
0.1169087126459
-0.0044842190530584
0.11693272572834
-0.0048310354527963
0.11697242030866
-0.00517012580015
0.11703114311757
-0.0055690329663016
0.11711031572501
-0.0059337984121773
0.11721321399604
-0.0064013682740905
0.11734396511189
-0.0067793258826325
-0.0073336567853391
0.11750182562475
0.11087488188908
-5.3783384421352e-05
0.11086960788023
-0.0001598972772839
0.1108601487343
-0.00026344769924036
0.11084603361633
-0.00036745544893254
0.11082700447225
-0.00047818935567494
0.11080299401703
-0.00060097402216291
0.11077404069415
-0.0007378143474033
0.11074024139001
-0.00088818064607979
0.11070186005735
-0.0010507122820694
0.11065933287781
-0.0012242881723789
0.11061326351301
-0.0014081414118417
0.11056436134605
-0.0016020371190974
0.11051345792848
-0.001805726903038
0.11046140070806
-0.0020194800811616
0.11040918051876
-0.0022431731098369
0.11035771190599
-0.0024779080796879
0.11030817589437
-0.0027233969498184
0.1102615176356
-0.0029820163669553
0.11021922796886
-0.0032517963612434
0.1101822387316
-0.0035375773615761
0.11015249246975
-0.0038330245369115
0.1101309325966
-0.0041504117457463
0.11011992179383
-0.0044732081762108
0.11012097729632
-0.0048320908867842
0.11013601420165
-0.005185162642784
0.11016912282694
-0.005602141534697
0.11021935714454
-0.005984032678141
0.11029619753386
-0.006478208615325
0.11039017294205
-0.0068733012436309
-0.0074626237541077
0.11051913996579
0.10465167783634
-5.1995103987858e-05
0.10464586113693
-0.00015408040998043
0.10463550928201
-0.00025309567313532
0.10462013510517
-0.00035208110331962
0.10459944762367
-0.00045750171001169
0.10457328553181
-0.00057481177111316
0.10454161402815
-0.00070614268904858
0.10450448516139
-0.00085105162825043
0.10446213725609
-0.0010083642284259
0.10441494923952
-0.0011771000094689
0.10436346196236
-0.001356653989748
0.10430833155242
-0.0015469065653334
0.10425033319275
-0.0017477284004175
0.10419024578346
-0.0019593925298879
0.10412901285081
-0.0021819400361606
0.10406745241143
-0.002416347500694
0.10400671276362
-0.0026626571641082
0.10394756856743
-0.0029228720354946
0.10389160579697
-0.0031958334589693
0.10383938441603
-0.0034853558537327
0.10379333767052
-0.0037869776704265
0.10375339309844
-0.0041104670598632
0.10372340654618
-0.0044432215175332
0.10370233368932
-0.0048110179312223
0.10369543275491
-0.0051782616173774
0.10370203645519
-0.0056087451522306
0.10372584883472
-0.0060078449825442
0.10377563853353
-0.0065279982448941
0.10383664484251
-0.0069343074860465
-0.0075668561194994
0.10394087728579
0.098777762515905
-5.0039172426706e-05
0.09877152976333
-0.00014784746347231
0.098760459495066
-0.0002420252091682
0.098744056666284
-0.00033567808135366
0.098722027722292
-0.00043547257675601
0.098694227247236
-0.00054701111063464
0.098660444270453
-0.00067235953000764
0.098620622735807
-0.00081122991347396
0.098575038159487
-0.00096277947330671
0.098524015021005
-0.0011260766927714
0.098468033497571
-0.0013006722884226
0.098407709680645
-0.0014865825705704
0.098343744777651
-0.0016837633198418
0.098276855705977
-0.0018925032809136
0.09820792290005
-0.0021130070537267
0.09813768881146
-0.0023461132366986
0.098067210931776
-0.0025921791111089
0.097997146472561
-0.0028528074060315
0.097929028887899
-0.003127715708983
0.097863204738727
-0.0034195315459158
0.097802333823778
-0.0037261066056365
0.097745591012802
-0.0040537241089524
0.097698244969279
-0.0043958753446956
0.097656107729629
-0.0047688805727396
0.097630333570504
-0.0051524873501482
0.097608941918903
-0.005587353403794
0.097613661973526
-0.006012564951057
0.097620598826885
-0.0065349350195784
0.097655499620496
-0.00696920820196
0.097772083656195
-0.0076834400655827
0.3970137303059
0.0045698474008049
0.39260140236337
0.0044123279959939
0.38835093346231
0.0042504689538096
0.38426652464178
0.0040844088733026
0.38035221770493
0.003914306989775
0.37661191942871
0.0037402983297125
0.37304940718104
0.003562512301583
0.36966832445906
0.0033810827765975
0.36647217192567
0.003196152588477
0.36346429595442
0.0030078760270803
0.3606478720914
0.00281642391928
0.35802588507138
0.002621987077021
0.35560111100458
0.0024247741241872
0.35337611377383
0.002224997288838
0.35135326210339
0.0020228517288487
0.34953476983656
0.0018184923259141
0.34792275133143
0.0016120185644617
0.34651928064267
0.0014034707487552
0.34532643749655
0.0011928432063145
0.34434632721912
0.00098011033828341
0.34358106243906
0.00076526484109247
0.34303270436592
0.00054835813484005
0.3427031556234
0.00032954880443013
0.34259394468413
0.0001092110018851
0.342706808535
-0.00011286378803002
0.3430428515378
-0.00033604293919608
0.34360228787015
-0.00055943626852399
0.34438497295103
-0.00078268501629383
0.34539022965607
-0.0010052566402647
0.34661684948098
-0.0012266197594624
0.34806314954367
-0.0014462999971992
0.3497270311942
-0.0016638815845461
0.35160605226462