/*--------------------------------*- C++ -*----------------------------------*\
| =========                 |                                                 |
| \\      /  F ield         | OpenFOAM: The Open Source CFD Toolbox           |
|  \\    /   O peration     | Version:  2112                                  |
|   \\  /    A nd           | Website:  www.openfoam.com                      |
|    \\/     M anipulation  |                                                 |
\*---------------------------------------------------------------------------*/
FoamFile
{
    version     2.0;
    format      ascii;
    arch        "LSB;label=32;scalar=64";
    class       volVectorField;
    location    "5.3";
    object      U;
}
// * * * * * * * * * * * * * * * * * * * * * * * * * * * * * * * * * * * * * //

dimensions      [0 1 -1 0 0 0 0];

internalField   nonuniform List<vector> 
22000
(
(1.0000011981443 -3.325861883224e-05 0)
(1.0000346028104 -0.00010183240570977 0)
(1.0001004142414 -0.00017271325694842 0)
(1.0002007891248 -0.00024615497619985 0)
(1.0003376814754 -0.00032299834452151 0)
(1.0005132109653 -0.00040417945938561 0)
(1.0007295273771 -0.00048983890399224 0)
(1.0009884753357 -0.00057904275986791 0)
(1.0012913174552 -0.00067015693532574 0)
(1.0016385923479 -0.00076146386661728 0)
(1.0020300848279 -0.00085152102952588 0)
(1.0024649777908 -0.00093933156164563 0)
(1.0029419958347 -0.0010242042685926 0)
(1.0034596371902 -0.0011057795819561 0)
(1.0040161882865 -0.0011837594016508 0)
(1.0046099605175 -0.0012581558872893 0)
(1.0052391000757 -0.0013287827218279 0)
(1.0059019841133 -0.0013959408264769 0)
(1.0065966699516 -0.0014592238880793 0)
(1.0073217164266 -0.001519317216352 0)
(1.008074939065 -0.0015751606281459 0)
(1.0088552478679 -0.0016284817582265 0)
(1.0096600072671 -0.0016768199452329 0)
(1.0104889969486 -0.0017245041467982 0)
(1.0113388199652 -0.0017654945153505 0)
(1.0122109661098 -0.0018099285498462 0)
(1.0131003761962 -0.0018426531169843 0)
(1.0140113128345 -0.001887316136253 0)
(1.0149351799227 -0.0019072279585927 0)
(1.0158808713413 -0.0019580668478577 0)
(1.000000467227 -9.7415106655506e-05 0)
(1.0000332590964 -0.00029846733821644 0)
(1.0000982717731 -0.00050644091038713 0)
(1.0001975707548 -0.00072201629187463 0)
(1.0003332487099 -0.00094771272010392 0)
(1.0005076036005 -0.0011863939925779 0)
(1.0007229202709 -0.0014385573370244 0)
(1.0009811630547 -0.0017014801404807 0)
(1.0012836843427 -0.0019703369215976 0)
(1.0016311108714 -0.0022400382185984 0)
(1.0020232823186 -0.002506303679603 0)
(1.0024594788586 -0.0027661687221867 0)
(1.0029384612232 -0.0030175733123092 0)
(1.0034588569036 -0.003259432012522 0)
(1.0040189275828 -0.0034908501746168 0)
(1.004617187242 -0.0037118465547069 0)
(1.0052516273202 -0.0039218746463932 0)
(1.0059210174262 -0.0041217962273296 0)
(1.006622963465 -0.0043104206672785 0)
(1.0073568507039 -0.0044897063598427 0)
(1.00811936601 -0.0046565813265683 0)
(1.0089112256821 -0.0048160117498035 0)
(1.0097272006289 -0.0049609369251939 0)
(1.0105710121682 -0.0051038065613126 0)
(1.0114336070264 -0.0052273744045439 0)
(1.0123248438226 -0.0053607368826559 0)
(1.0132278381973 -0.0054606354464181 0)
(1.014164046854 -0.0055946173999319 0)
(1.0151009905863 -0.0056580762837438 0)
(1.0160821588957 -0.0058093749135635 0)
(1.0000004916863 -0.0001577613781736 0)
(1.0000337460071 -0.00048349543086104 0)
(1.0000995340455 -0.00082054822320209 0)
(1.0001997564684 -0.001170053670782 0)
(1.000336389003 -0.0015362625657586 0)
(1.0005117425909 -0.001923992575548 0)
(1.0007282045158 -0.0023341400646173 0)
(1.0009878837428 -0.002762308789467 0)
(1.0012922497731 -0.0032006586639191 0)
(1.0016420647455 -0.0036409188735934 0)
(1.002037267497 -0.0040761266795545 0)
(1.002477318304 -0.0045014617004202 0)
(1.0029610639758 -0.00491355413028 0)
(1.0034873820389 -0.0053106304898432 0)
(1.0040545306438 -0.0056911985268967 0)
(1.0046614073241 -0.0060553018743878 0)
(1.0053057801101 -0.0064019976937576 0)
(1.0059871267319 -0.0067327386776839 0)
(1.0067023168234 -0.0070454524856142 0)
(1.0074521982282 -0.0073434531131724 0)
(1.0082315419028 -0.0076214478810878 0)
(1.0090442436534 -0.0078878834164144 0)
(1.0098805644899 -0.0081306505553773 0)
(1.0107511716263 -0.0083709339610314 0)
(1.0116370053535 -0.0085792835791404 0)
(1.0125627652112 -0.0088052191084225 0)
(1.0134903097989 -0.0089751331264443 0)
(1.0144719970899 -0.0092037891169812 0)
(1.0154316554766 -0.0093136639165851 0)
(1.0164763676549 -0.0095730577095273 0)
(1.0000004986861 -0.00021518665698814 0)
(1.0000339823915 -0.00065935270353072 0)
(1.0001001473895 -0.0011187825649394 0)
(1.000200798405 -0.0015952108326133 0)
(1.0003378819808 -0.0020947491076325 0)
(1.0005137888566 -0.0026241837295365 0)
(1.0007310317646 -0.0031848140402468 0)
(1.0009918741109 -0.003770676973973 0)
(1.0012979157399 -0.0043711260801836 0)
(1.0016500989237 -0.0049749574471074 0)
(1.0020484987413 -0.0055727387889795 0)
(1.0024928273843 -0.0061579579875648 0)
(1.0029820471386 -0.0067260276899754 0)
(1.0035153911428 -0.0072745589619726 0)
(1.0040911120299 -0.0078014698064229 0)
(1.0047086644896 -0.0083068732896787 0)
(1.0053655004394 -0.0087893735111385 0)
(1.0060621258521 -0.0092510837349871 0)
(1.0067943598579 -0.009688898448201 0)
(1.0075651667486 -0.010107659495743 0)
(1.0083665811223 -0.010499510043931 0)
(1.0092070789614 -0.010876812996185 0)
(1.0100704829731 -0.011221637361755 0)
(1.0109774165951 -0.0115649534294 0)
(1.0118945745151 -0.011863362892741 0)
(1.0128678073133 -0.012189268760346 0)
(1.0138288595171 -0.012434848736059 0)
(1.014873856672 -0.01276764066785 0)
(1.015865136514 -0.012928799216582 0)
(1.0169991509895 -0.013308611759687 0)
(1.0000005045441 -0.00026960601203166 0)
(1.0000340426835 -0.00082581784020166 0)
(1.0001002387608 -0.0014007580935834 0)
(1.0002008080453 -0.0019968650043263 0)
(1.0003376745272 -0.0026222853537634 0)
(1.0005133160195 -0.0032858779912161 0)
(1.000730378943 -0.0039894192985284 0)
(1.0009913053147 -0.0047255195128097 0)
(1.0012978556173 -0.005480941563643 0)
(1.0016512082834 -0.0062417971179162 0)
(1.0020516212119 -0.0069963948211529 0)
(1.0024991419166 -0.0077366966539928 0)
(1.0029928895398 -0.008456985527135 0)
(1.0035325691859 -0.0091543320635245 0)
(1.0041164356799 -0.0098260617454426 0)
(1.0047446804618 -0.010472412344289 0)
(1.0054143587352 -0.011091460337918 0)
(1.0061273271435 -0.011686077963131 0)
(1.0068780646967 -0.012251926558975 0)
(1.0076722949628 -0.012795608643811 0)
(1.0084985481617 -0.013306243106831 0)
(1.0093712236509 -0.013800704434183 0)
(1.0102659071814 -0.014254220633551 0)
(1.0112160010075 -0.014708995203002 0)
(1.0121700553119 -0.015105385792434 0)
(1.0132008603304 -0.015542025717155 0)
(1.0142020559891 -0.015871755070043 0)
(1.0153250070596 -0.016322348286337 0)
(1.0163548655963 -0.016542516631994 0)
(1.0175997050052 -0.017060550735024 0)
(1.0000005092936 -0.00032087613492532 0)
(1.0000338765056 -0.00098242807804427 0)
(1.000099625386 -0.0016656658189085 0)
(1.0001993561902 -0.0023738628923195 0)
(1.000334957371 -0.003117410911724 0)
(1.0005089971683 -0.0039073629403421 0)
(1.0007242684448 -0.0047460499383318 0)
(1.0009834177313 -0.005624798785536 0)
(1.0012883919984 -0.0065280067655826 0)
(1.0016406540136 -0.0074393623918448 0)
(1.0020406858423 -0.008345137923301 0)
(1.0024889517842 -0.0092359478361205 0)
(1.0029847715644 -0.010105040108206 0)
(1.0035284410113 -0.010949032289444 0)
(1.0041182318145 -0.011764654529094 0)
(1.0047552544944 -0.012552343197153 0)
(1.0054361003115 -0.013309564058458 0)
(1.0061642964537 -0.01404007817819 0)
(1.0069327171539 -0.014738084456145 0)
(1.00775046829 -0.015412237559007 0)
(1.0086018644019 -0.016048093151333 0)
(1.0095085033023 -0.016667763741629 0)
(1.0104360805824 -0.017238429302471 0)
(1.0114333929604 -0.01781526968673 0)
(1.0124273252134 -0.018319681999681 0)
(1.0135228142113 -0.01888050513524 0)
(1.014568372799 -0.019305210538198 0)
(1.0157805557264 -0.019890559528309 0)
(1.0168540972235 -0.020179827699958 0)
(1.0182271692835 -0.020857860486312 0)
(1.0000005111273 -0.00036880239855401 0)
(1.0000333931378 -0.00112855617776 0)
(1.0000980425841 -0.0019124008383113 0)
(1.0001959072526 -0.0027245860677439 0)
(1.0003288224464 -0.0035779708794439 0)
(1.0004994469274 -0.0044859331657588 0)
(1.0007107219127 -0.0054514443470586 0)
(1.000965512273 -0.0064647055364237 0)
(1.0012659689863 -0.0075079939980068 0)
(1.0016138816631 -0.0085628594242337 0)
(1.0020099921232 -0.0096137801085094 0)
(1.0024552579931 -0.010650217550154 0)
(1.0029492424811 -0.011664489896762 0)
(1.0034929498807 -0.012652862752665 0)
(1.0040846876697 -0.013611472865962 0)
(1.0047266662741 -0.0145410467256 0)
(1.0054149571053 -0.01543835276569 0)
(1.0061550718591 -0.016308196683448 0)
(1.006938043604 -0.017143068821891 0)
(1.0077769616843 -0.017954014661707 0)
(1.0086512846204 -0.018722434344912 0)
(1.0095910062252 -0.019476507693027 0)
(1.0105504596717 -0.020174023372235 0)
(1.0115962072711 -0.02088510836591 0)
(1.0126304054425 -0.021509183435268 0)
(1.0137946565947 -0.022209708708185 0)
(1.0148864833989 -0.022742146519989 0)
(1.016195792112 -0.023481807042402 0)
(1.0173165397618 -0.023852436905232 0)
(1.0188310499393 -0.024715390617103 0)
(1.000000508878 -0.00041313455214889 0)
(1.0000325149962 -0.0012634019798853 0)
(1.0000952637216 -0.002139562864973 0)
(1.0001900063491 -0.0030469879194791 0)
(1.0003184980052 -0.0040012298559022 0)
(1.0004834776641 -0.005018125596821 0)
(1.0006880274416 -0.0061013801615069 0)
(1.0009352313298 -0.0072402399724572 0)
(1.0012274502621 -0.0084151265271593 0)
(1.0015668345345 -0.0096057557556808 0)
(1.0019544218496 -0.010795073734228 0)
(1.0023917355811 -0.011971600240566 0)
(1.0028786232929 -0.013126841740693 0)
(1.003416907407 -0.014256824437825 0)
(1.004004955315 -0.015357102286327 0)
(1.0046462505813 -0.016428796857345 0)
(1.0053363062343 -0.017467900660366 0)
(1.0060829126218 -0.018480435386901 0)
(1.0068750637695 -0.0194569437824 0)
(1.0077303852751 -0.020411224371767 0)
(1.0086229244542 -0.021319918829766 0)
(1.0095921506615 -0.022218170185479 0)
(1.0105797773999 -0.023052959771877 0)
(1.0116721808031 -0.02391148073851 0)
(1.0127442891769 -0.02466799297604 0)
(1.0139780445317 -0.025525235638822 0)
(1.0151155244374 -0.026179771236528 0)
(1.0165260383658 -0.027095301060295 0)
(1.0176957713635 -0.027561731001646 0)
(1.0193601617907 -0.02863697170405 0)
(1.0000005020876 -0.00045359740031771 0)
(1.0000311819238 -0.0013860945652432 0)
(1.0000911102775 -0.0023456391245753 0)
(1.0001812928394 -0.0033388660078092 0)
(1.0003033689743 -0.0043842413754188 0)
(1.0004601354454 -0.0055001899178206 0)
(1.0006547988372 -0.0066912476877341 0)
(1.0008906519068 -0.0079458888435186 0)
(1.0011702653939 -0.0092429615135525 0)
(1.0014961692563 -0.010560665996243 0)
(1.0018697284898 -0.011880698061941 0)
(1.0022930887283 -0.013190854139442 0)
(1.002766433109 -0.01448196987785 0)
(1.0032924911935 -0.015749946195485 0)
(1.003869728681 -0.016989790176248 0)
(1.0045030353752 -0.018203120060631 0)
(1.005187370414 -0.019385108629127 0)
(1.0059330235456 -0.020543144830563 0)
(1.0067268567926 -0.021665654658964 0)
(1.0075914376268 -0.022769487792349 0)
(1.0084950607451 -0.023826043288685 0)
(1.009487484341 -0.024878245967276 0)
(1.0104969218174 -0.025860935240657 0)
(1.0116311326337 -0.026880494736762 0)
(1.0127360420963 -0.027782818582399 0)
(1.0140365392022 -0.028814642492293 0)
(1.0152164899137 -0.029606820475598 0)
(1.0167281134708 -0.030720931405895 0)
(1.0179467098244 -0.031299618120193 0)
(1.0197640732139 -0.032615854968911 0)
(1.0000004899477 -0.00048992344510918 0)
(1.0000293500958 -0.0014957933386689 0)
(1.0000854542629 -0.0025291787221309 0)
(1.0001695104317 -0.0035981139780552 0)
(1.0002830006894 -0.004724180309644 0)
(1.0004287463206 -0.005928504530557 0)
(1.0006100516243 -0.0072165501349545 0)
(1.0008303954455 -0.0085762113205569 0)
(1.0010925510297 -0.0099850619804209 0)
(1.0013994295905 -0.011420116176642 0)
(1.0017527555106 -0.012862119208034 0)
(1.0021553227817 -0.014298361345879 0)
(1.0026077173996 -0.015719174284018 0)
(1.0031136074301 -0.017120433502598 0)
(1.0036716678669 -0.0184966826401 0)
(1.0042882016986 -0.01985010254802 0)
(1.0049577923832 -0.02117508452907 0)
(1.0056931622213 -0.022480442565924 0)
(1.0064793667666 -0.023752507409807 0)
(1.0073436976207 -0.025011217326575 0)
(1.0082492196575 -0.026222700663309 0)
(1.0092556539887 -0.027437901361184 0)
(1.0102782188612 -0.028578949621407 0)
(1.0114460955885 -0.029772815688927 0)
(1.0125760247706 -0.030834444842736 0)
(1.0139368646814 -0.032058954659914 0)
(1.0151534165396 -0.033005051153027 0)
(1.0167615713233 -0.034340817231365 0)
(1.018026933434 -0.035050144764133 0)
(1.0199946443211 -0.03663652468377 0)
(1.0000004721963 -0.00052187884409125 0)
(1.0000269946811 -0.0015917695863439 0)
(1.0000782233811 -0.0026889320107228 0)
(1.0001545165759 -0.0038229220140737 0)
(1.0002571539517 -0.0050186108302771 0)
(1.0003889396862 -0.0062999206976181 0)
(1.0005532387085 -0.0076733318839916 0)
(1.0007536805705 -0.0091263575954262 0)
(1.0009932253464 -0.010635605405789 0)
(1.0012751485794 -0.01217724460925 0)
(1.0016015654813 -0.013731374648285 0)
(1.0019759076471 -0.015285005864297 0)
(1.0023992629923 -0.016828138627631 0)
(1.0028761767094 -0.018356723585099 0)
(1.003405756265 -0.019864950926481 0)
(1.0039955034123 -0.021355601774081 0)
(1.0046401310727 -0.022822416898212 0)
(1.0053541809572 -0.024275562937134 0)
(1.006122040141 -0.025699589137694 0)
(1.0069742210307 -0.027117061921942 0)
(1.0078710019587 -0.028489793191824 0)
(1.0088789111278 -0.029875350385456 0)
(1.009904615146 -0.031185247377144 0)
(1.0110936519071 -0.032564788086516 0)
(1.0122393353562 -0.033799709298921 0)
(1.01364961541 -0.035234149081138 0)
(1.0148940330976 -0.036350065847074 0)
(1.0165900746966 -0.037930933235622 0)
(1.0178974353595 -0.038790894401225 0)
(1.0200063498221 -0.040674893693228 0)
(1.0000004483656 -0.00054928348117675 0)
(1.0000241097779 -0.001673468940037 0)
(1.0000694041172 -0.0028239582605999 0)
(1.0001362890147 -0.0040119329720284 0)
(1.0002257947248 -0.0052656958491539 0)
(1.0003406605426 -0.0066120314644275 0)
(1.0004842654841 -0.0080585154062101 0)
(1.0006603453647 -0.0095924797747589 0)
(1.0008720178078 -0.011189875639766 0)
(1.0011228982868 -0.012826374798231 0)
(1.0014155001219 -0.014481731631275 0)
(1.001753883757 -0.016142913634963 0)
(1.0021396874865 -0.017799752314222 0)
(1.0025783157934 -0.019448398752806 0)
(1.0030694060329 -0.02108277838887 0)
(1.0036216103978 -0.022706359144261 0)
(1.0042299338401 -0.024312297531728 0)
(1.0049106558209 -0.025912205496954 0)
(1.0056477447393 -0.027488882153125 0)
(1.0064747367108 -0.029067632816332 0)
(1.0073496852814 -0.030606029594016 0)
(1.0083451235741 -0.03216814911875 0)
(1.0093610617225 -0.033655680516153 0)
(1.0105562514739 -0.0352306728185 0)
(1.0117063169161 -0.036652903677138 0)
(1.0131500662401 -0.038311117780091 0)
(1.0144130577295 -0.039614515812072 0)
(1.0161819989193 -0.041462350330889 0)
(1.0175244923407 -0.042492215796822 0)
(1.0197598022362 -0.044699630325321 0)
(1.0000004185119 -0.00057202468482058 0)
(1.0000207083493 -0.0017405541494743 0)
(1.0000590382201 -0.0029336985581266 0)
(1.0001149188822 -0.0041643479133058 0)
(1.0001890843198 -0.0054643402018806 0)
(1.0002841568065 -0.0068633588197959 0)
(1.0004034746737 -0.0083701391178978 0)
(1.0005508277511 -0.0099720266643922 0)
(1.0007294491927 -0.011644622554085 0)
(1.0009432625177 -0.013363443253334 0)
(1.0011951631858 -0.015108193815191 0)
(1.0014898294785 -0.016866032014009 0)
(1.0018294554132 -0.01862678177477 0)
(1.002220305301 -0.020386919405739 0)
(1.0026625663553 -0.022140202800933 0)
(1.0031660540391 -0.02389086622687 0)
(1.003726091391 -0.025631577542556 0)
(1.0043607392367 -0.027375457886255 0)
(1.0050535655339 -0.029103649863284 0)
(1.0058412359553 -0.030844310448141 0)
(1.006679588269 -0.032550770359994 0)
(1.007647229176 -0.034293951325992 0)
(1.0086379148296 -0.035965462964454 0)
(1.0098226843126 -0.037744655720146 0)
(1.0109622799544 -0.039365457138817 0)
(1.0124209756865 -0.04125990165464 0)
(1.0136904249473 -0.042768589297595 0)
(1.0155116798574 -0.044900297979762 0)
(1.0168810004284 -0.046121599211152 0)
(1.0192209002088 -0.048676501899729 0)
(1.0000003823644 -0.00059006499896921 0)
(1.0000168211559 -0.001792929327018 0)
(1.0000472207916 -0.0030180184131525 0)
(1.000090602939 -0.0042799869097623 0)
(1.0001473619866 -0.0056142706850351 0)
(1.0002199508563 -0.0070534577048193 0)
(1.0003116073719 -0.008607492078697 0)
(1.0004261149342 -0.010263917136476 0)
(1.0005667700332 -0.011998280327285 0)
(1.0007377615741 -0.013786270890539 0)
(1.000942336277 -0.01560782978091 0)
(1.0011857649184 -0.017450525070759 0)
(1.0014707802579 -0.019304332374942 0)
(1.001804490617 -0.021166169055731 0)
(1.0021876257366 -0.023029729361449 0)
(1.0026311540334 -0.024900090187259 0)
(1.0031307287593 -0.026769529485946 0)
(1.0037061683399 -0.028652764043168 0)
(1.0043407237946 -0.030529330355504 0)
(1.005074071385 -0.032430493013651 0)
(1.0058601680059 -0.034305082202449 0)
(1.0067832186625 -0.036231799510358 0)
(1.0077316959969 -0.038090845731332 0)
(1.0088875874994 -0.040081394176611 0)
(1.009999145753 -0.041908542817892 0)
(1.0114525201204 -0.044050780292092 0)
(1.0127122102229 -0.045779318686276 0)
(1.0145620600966 -0.048208927871777 0)
(1.015947268177 -0.049644831808477 0)
(1.0183628470954 -0.052565386951928 0)
(1.0000003395545 -0.00060344655687838 0)
(1.0000124950249 -0.001830745918899 0)
(1.000034089294 -0.0030772193873534 0)
(1.0000636292599 -0.0043593054753555 0)
(1.0001011231893 -0.0057160657214532 0)
(1.0001488019715 -0.0071829612024629 0)
(1.0002097432754 -0.0087711738902111 0)
(1.0002876604485 -0.010468616515212 0)
(1.0003858540788 -0.012251064944582 0)
(1.0005087248187 -0.014094690444511 0)
(1.0006598267127 -0.015979938020296 0)
(1.0008449803467 -0.017894988887085 0)
(1.0010674241375 -0.019830120450682 0)
(1.0013350677396 -0.021782797191369 0)
(1.0016491664903 -0.023746748897737 0)
(1.0020217808011 -0.025727975749507 0)
(1.0024489300805 -0.027718439465117 0)
(1.002952051591 -0.029734596800492 0)
(1.0035142751974 -0.031754327928979 0)
(1.0041779283048 -0.033812431755045 0)
(1.0048956438833 -0.035852807809203 0)
(1.0057564658772 -0.037962982969804 0)
(1.0066446710078 -0.040010668647336 0)
(1.007751913718 -0.042216609266791 0)
(1.0088158464354 -0.044255480222066 0)
(1.0102417235106 -0.04665410963497 0)
(1.0114725181544 -0.048613734188231 0)
(1.0133241234914 -0.051352827510945 0)
(1.0147115125774 -0.053025624226204 0)
(1.0171675831351 -0.056322745134051 0)
(1.0000002945772 -0.00061228120239287 0)
(1.0000077767319 -0.001854400605102 0)
(1.0000198305617 -0.0031119821646183 0)
(1.0000343723008 -0.0044033219438394 0)
(1.0000510009038 -0.0057710644204329 0)
(1.0000716788356 -0.0072534842050146 0)
(1.000099259136 -0.0088630111049626 0)
(1.0001373171197 -0.010588076008902 0)
(1.000189095925 -0.012404939642712 0)
(1.0002591479028 -0.014290538242905 0)
(1.0003512822249 -0.016226067014293 0)
(1.0004718099249 -0.018200504422447 0)
(1.0006244304073 -0.020204565533385 0)
(1.0008177828683 -0.022236360603371 0)
(1.0010536263891 -0.024289737304081 0)
(1.0013450024468 -0.026371710566364 0)
(1.0016883435358 -0.028473964943176 0)
(1.00210649539 -0.030614871865495 0)
(1.0025826673185 -0.032770592261822 0)
(1.0031614438628 -0.034979822540593 0)
(1.0037945959703 -0.03718135736949 0)
(1.0045753227744 -0.039472050104341 0)
(1.0053846685748 -0.041706994321968 0)
(1.0064224629053 -0.044128994482836 0)
(1.0074184345906 -0.046382153545579 0)
(1.0087921761931 -0.049042117785344 0)
(1.0099739349078 -0.051241302757164 0)
(1.0117966808485 -0.054296605829656 0)
(1.0131704730028 -0.056227734748939 0)
(1.0156264220897 -0.059904858321025 0)
(1.000000240519 -0.00061675495901081 0)
(1.0000027504103 -0.0018644694751701 0)
(1.0000046153691 -0.0031234298950153 0)
(1.0000032030933 -0.0044136862400163 0)
(0.99999766392878 -0.0057814212585262 0)
(0.99998963382593 -0.0072676370298464 0)
(0.99998168239622 -0.0088860106978927 0)
(0.9999771787276 -0.010625630956545 0)
(0.99997924140011 -0.012463479191204 0)
(0.99999250467702 -0.014377508375861 0)
(1.0000209742055 -0.016349877987548 0)
(1.0000713779187 -0.018370521872797 0)
(1.0001478242113 -0.020430706219587 0)
(1.0002595865156 -0.022529275589637 0)
(1.000408897406 -0.024660260052864 0)
(1.0006096387839 -0.026831776871311 0)
(1.0008586826739 -0.029035268742967 0)
(1.0011800585407 -0.031291154351316 0)
(1.0015571933793 -0.033573903506357 0)
(1.0020365497459 -0.035926275295758 0)
(1.0025694468594 -0.03828211266996 0)
(1.0032523850482 -0.040747618626606 0)
(1.0039645908142 -0.043165790653938 0)
(1.0049113332432 -0.045801063808434 0)
(1.0058193783985 -0.048268381187026 0)
(1.0071140244204 -0.05118979568372 0)
(1.0082270086353 -0.053635516199624 0)
(1.0099862418528 -0.057006508131314 0)
(1.0113303535984 -0.059217013652988 0)
(1.0137403976259 -0.063269641105392 0)
(1.0000001835689 -0.00061710921071572 0)
(0.99999746791969 -0.0018617706969128 0)
(0.99998867970823 -0.0031129313609449 0)
(0.99997058608163 -0.0043924066294114 0)
(0.99994187198617 -0.0057498211965922 0)
(0.99990381804363 -0.0072287787931091 0)
(0.9998586578684 -0.00884417059659 0)
(0.99980948630011 -0.010585849732958 0)
(0.99975923204134 -0.012431724892221 0)
(0.99971253704551 -0.01436098975151 0)
(0.99967353865271 -0.016356959724787 0)
(0.99964929632356 -0.018410659035914 0)
(0.99964426418801 -0.020514001487624 0)
(0.99966824079911 -0.02266663165182 0)
(0.99972388189403 -0.024862822006394 0)
(0.99982576146011 -0.027111840471336 0)
(0.99997117913542 -0.029404956583174 0)
(1.000185125162 -0.031764675830003 0)
(1.0004513423135 -0.034163921857094 0)
(1.0008177373895 -0.03664949712455 0)
(1.0012356931212 -0.039150684661039 0)
(1.0018037724552 -0.041782677302638 0)
(1.0024014347313 -0.04437759581668 0)
(1.003235468851 -0.047219505556146 0)
(1.0040361523744 -0.049899037860842 0)
(1.0052239897993 -0.053075441851506 0)
(1.0062481770682 -0.055774850534762 0)
(1.0079078719153 -0.05945283160971 0)
(1.0092049166882 -0.061961831022379 0)
(1.0115217717561 -0.066378919344058 0)
(1.0000001234305 -0.00061363299664134 0)
(0.99999200990488 -0.0018472235526294 0)
(0.9999722298656 -0.0030821575900928 0)
(0.99993695533685 -0.0043419440605392 0)
(0.99988439414451 -0.0056795151142991 0)
(0.99981542730673 -0.0071409370142158 0)
(0.99973189990974 -0.0087422806614364 0)
(0.99963656993544 -0.010474252343776 0)
(0.99953211888759 -0.012315866247798 0)
(0.99942312187018 -0.014247738710088 0)
(0.99931378526468 -0.016254502754366 0)
(0.99921140657107 -0.018328372896725 0)
(0.99912071850723 -0.020461998340225 0)
(0.99905192262215 -0.022655857347422 0)
(0.99900803823685 -0.02490453706597 0)
(0.9990041670567 -0.027218449626231 0)
(0.99903801103359 -0.029588801783161 0)
(0.99913526083674 -0.032040130275617 0)
(0.99928009768336 -0.034544044486548 0)
(0.99952130327378 -0.037151227811012 0)
(0.99981104165457 -0.039786976452191 0)
(1.0002482778768 -0.042574735263302 0)
(1.0007153223418 -0.045337763848985 0)
(1.0014157297155 -0.048375881536301 0)
(1.0020904715439 -0.051263916711835 0)
(1.00314409185 -0.05468291881345 0)
(1.0040592832756 -0.057641043873421 0)
(1.0055833573301 -0.061612033091299 0)
(1.0068138561824 -0.064434818927648 0)
(1.0089915224833 -0.069197885644121 0)
(1.0000000603599 -0.00060664895107465 0)
(0.99998643992945 -0.0018218686234534 0)
(0.9999554717659 -0.0030329402308392 0)
(0.99990273746445 -0.0042649903686742 0)
(0.99982596656347 -0.0055740999960812 0)
(0.99972560494934 -0.007008632822127 0)
(0.99960306607453 -0.008585786375208 0)
(0.9994607068574 -0.010297175327179 0)
(0.99930090943606 -0.012123074856403 0)
(0.99912810089192 -0.01404566910869 0)
(0.99894650671597 -0.016051051835244 0)
(0.99876355201674 -0.01813268242083 0)
(0.99858419569533 -0.02028403588252 0)
(0.99841888750711 -0.022506402754235 0)
(0.9982709787794 -0.02479479393998 0)
(0.99815588313218 -0.02716066901111 0)
(0.99807172539306 -0.029595369702142 0)
(0.99804455146394 -0.0321252675926 0)
(0.99805917172324 -0.03472103633417 0)
(0.99816455936416 -0.037436885541847 0)
(0.99831443542318 -0.040194899695314 0)
(0.99860648408908 -0.043125722117859 0)
(0.99892828915288 -0.04604624196532 0)
(0.99947592747671 -0.049267290264157 0)
(1.0000071817653 -0.052357442308863 0)
(1.0009008163222 -0.05600331553311 0)
(1.0016869600097 -0.059220262249006 0)
(1.0030402639785 -0.063465988113481 0)
(1.0041825230725 -0.066614154515378 0)
(1.0061762259938 -0.071695422774705 0)
(0.99999999525106 -0.00059649501334917 0)
(0.9999808096002 -0.0017867880559514 0)
(0.99993857127111 -0.0029671965828619 0)
(0.99986829600591 -0.004164369034831 0)
(0.99976724224086 -0.0054373439238342 0)
(0.99963538283398 -0.0068366184190425 0)
(0.9994736771761 -0.0083804749243046 0)
(0.99928401513728 -0.010061449770766 0)
(0.99906843119285 -0.011861199725954 0)
(0.99883110776295 -0.013763574845627 0)
(0.99857627374719 -0.015756258984955 0)
(0.99831133667431 -0.017833956627716 0)
(0.99804148110459 -0.019991082915536 0)
(0.99777717075695 -0.02222963668567 0)
(0.99752215981557 -0.024545240628545 0)
(0.99729180280651 -0.026950131734776 0)
(0.99708484325055 -0.029436164478173 0)
(0.99692709160514 -0.0320310383645 0)
(0.99680441564295 -0.034705230680033 0)
(0.99676508484177 -0.037515669648483 0)
(0.99676518116739 -0.040382460381764 0)
(0.99689973908817 -0.043442059765948 0)
(0.99706308708933 -0.046507301567 0)
(0.99744129767316 -0.049896639237781 0)
(0.99781276164233 -0.053178321514646 0)
(0.9985233464064 -0.057035440640225 0)
(0.99916183449604 -0.060504572181392 0)
(1.0003116068123 -0.065004989137058 0)
(1.0013430882809 -0.068483497503235 0)
(1.0031085128092 -0.073847131414205 0)
(0.99999992771481 -0.00058352013860408 0)
(0.99997516105639 -0.0017430979461525 0)
(0.99992167369878 -0.0028868848608133 0)
(0.99983397130036 -0.0040429263706405 0)
(0.99970882847713 -0.0052729910737266 0)
(0.99954567052232 -0.0066295420029571 0)
(0.99934503397999 -0.0081319507090956 0)
(0.9991083137158 -0.0097737086816104 0)
(0.99883714954214 -0.011537963569242 0)
(0.99853535008354 -0.013410261439531 0)
(0.99820717063799 -0.01537996897137 0)
(0.99785979982208 -0.017442982002317 0)
(0.99749873328227 -0.019594799161023 0)
(0.99713408676241 -0.021837929207135 0)
(0.99677030446107 -0.024168917728462 0)
(0.99642201617642 -0.026600274424308 0)
(0.99608921667402 -0.029125063506667 0)
(0.99579625439057 -0.031771236656078 0)
(0.99553126764931 -0.034510559762037 0)
(0.99533993128717 -0.037400738856873 0)
(0.99518250769566 -0.040362375601784 0)
(0.99514917090184 -0.043535123223667 0)
(0.99514267704824 -0.046730114031573 0)
(0.99533726976928 -0.050272783745104 0)
(0.9955337241664 -0.053728716091879 0)
(0.99604137886841 -0.057785265433728 0)
(0.99651528466781 -0.061488278915993 0)
(0.9974333274814 -0.066230951321477 0)
(0.99833489732375 -0.070029281588478 0)
(0.9998289552527 -0.075643096548681 0)
(0.99999985309701 -0.0005681022672361 0)
(0.99996955487305 -0.0016920228831444 0)
(0.99990499156466 -0.0027941505854211 0)
(0.99980023617546 -0.0039037091823047 0)
(0.99965153321709 -0.0050849606577519 0)
(0.99945760627988 -0.0063921588071541 0)
(0.99921857146408 -0.0078456046403003 0)
(0.99893535355345 -0.0094398232221839 0)
(0.99860922843829 -0.011159771924907 0)
(0.99824354275565 -0.012992718847978 0)
(0.99784259527544 -0.014929717252515 0)
(0.99741311265942 -0.016967766175416 0)
(0.9969610388868 -0.019103595180268 0)
(0.99649568501205 -0.021339966478135 0)
(0.99602264323735 -0.023674726845145 0)
(0.99555486192116 -0.026119951404482 0)
(0.99509478149882 -0.028670948283701 0)
(0.99466317788242 -0.031354245012041 0)
(0.99425318711434 -0.034145538951596 0)
(0.99390371543057 -0.037099575219599 0)
(0.99358442084096 -0.040142695733923 0)
(0.99337374730714 -0.043411254948407 0)
(0.99319024030605 -0.046721015823219 0)
(0.9931883345573 -0.050400914505787 0)
(0.99319734336657 -0.054008650672705 0)
(0.99348529469296 -0.058257427699543 0)
(0.99377646297595 -0.062158414842726 0)
(0.99444161325341 -0.067153349655209 0)
(0.99519799397475 -0.071226627921836 0)
(0.99638114880113 -0.077100093118676 0)
(0.99999975652621 -0.00055077464211535 0)
(0.9999640533412 -0.0016351599209379 0)
(0.99988882176995 -0.002691633330175 0)
(0.99976773184831 -0.0037503892664832 0)
(0.99959632406597 -0.0048778063884595 0)
(0.99937264854043 -0.0061301187100141 0)
(0.99909637493352 -0.0075280924139245 0)
(0.99876760649769 -0.0090665949215953 0)
(0.99838728973548 -0.010732919639769 0)
(0.99795858826091 -0.012516367998406 0)
(0.99748585760843 -0.014409757815204 0)
(0.99697514886108 -0.016411155298216 0)
(0.99643289339365 -0.018518594565097 0)
(0.99586731629956 -0.020734970668398 0)
(0.99528543686405 -0.023059785688572 0)
(0.99469777016245 -0.025504054951476 0)
(0.9941101870111 -0.028066336034411 0)
(0.99353772232672 -0.030769961405577 0)
(0.99298173969464 -0.033597872339181 0)
(0.99246878835031 -0.036596941864525 0)
(0.99198660822495 -0.039708088486655 0)
(0.99158874359143 -0.043051913115148 0)
(0.99122779305328 -0.046466958404919 0)
(0.99101460158291 -0.050264059590718 0)
(0.99083235303963 -0.054012889256278 0)
(0.99088469164918 -0.058446997766948 0)
(0.99097244736172 -0.062509637002822 0)
(0.99137531835316 -0.067806996688993 0)
(0.99195513931757 -0.072037321649926 0)
(0.99281288404852 -0.078395875741573 0)
(0.99999964344332 -0.00053278461225887 0)
(0.99995850897479 -0.0015764028237432 0)
(0.99987305178119 -0.0025859097531995 0)
(0.99973647052912 -0.0035923124873954 0)
(0.99954304610498 -0.0046641034354583 0)
(0.99929039078674 -0.0058598606193402 0)
(0.99897881569206 -0.007202237509181 0)
(0.99860680984962 -0.0086850964588207 0)
(0.99817399808141 -0.010296998422289 0)
(0.99768386862127 -0.012028936608631 0)
(0.99714100518693 -0.013875897850639 0)
(0.99655090172262 -0.015837483117377 0)
(0.9959202229347 -0.01791288097119 0)
(0.99525618081497 -0.020105293492737 0)
(0.9945668690222 -0.02241629073393 0)
(0.99386074491882 -0.024855677360388 0)
(0.99314647281549 -0.027426104752865 0)