/*--------------------------------*- C++ -*----------------------------------*\
| =========                 |                                                 |
| \\      /  F ield         | OpenFOAM: The Open Source CFD Toolbox           |
|  \\    /   O peration     | Version:  2112                                  |
|   \\  /    A nd           | Website:  www.openfoam.com                      |
|    \\/     M anipulation  |                                                 |
\*---------------------------------------------------------------------------*/
FoamFile
{
    version     2.0;
    format      ascii;
    arch        "LSB;label=32;scalar=64";
    class       volScalarField;
    location    "5";
    object      p;
}
// * * * * * * * * * * * * * * * * * * * * * * * * * * * * * * * * * * * * * //

dimensions      [0 2 -2 0 0 0 0];

internalField   nonuniform List<scalar> 
22000
(
0.091753553890251
0.091721990908307
0.091656582122515
0.091555957538373
0.091419253835316
0.091246283228916
0.091037276809317
0.09079249753794
0.090512051639072
0.090195921490401
0.089844060364083
0.089456451786489
0.089033116894694
0.088574108138352
0.088079491965891
0.087549356962143
0.086983801880792
0.086382968160734
0.085747006422989
0.085076144248062
0.084370590602104
0.083630686841543
0.082856671973255
0.082049042114134
0.081208014696403
0.080334359789945
0.079428165804632
0.078490705482529
0.077521596249983
0.076523077395442
0.09234720860334
0.092314395311942
0.092247773263275
0.092146030125877
0.092008231311824
0.091834135098716
0.09162393085269
0.091377850358943
0.091095980085778
0.090778284059914
0.090424688130022
0.090035139878859
0.089609616335187
0.089148124617248
0.088650680522501
0.088117327780594
0.087548111504569
0.086943133323936
0.086302481019256
0.085626349815526
0.084914863527401
0.084168349867353
0.083386923422481
0.082571114533478
0.081720947992266
0.080837314150841
0.07991997070386
0.07897040430136
0.07798750620495
0.076973636504657
0.093428080727142
0.093394860686465
0.093327506492158
0.093224872971394
0.093086144774848
0.092911081031725
0.092699799306575
0.092452451490825
0.092169061195768
0.091849540593417
0.091493759512013
0.0911016025531
0.090672973067135
0.090207803359298
0.089706023708317
0.08916759928091
0.088592477112582
0.087980683208338
0.087332189197306
0.086647133086161
0.085925490242999
0.085167576333908
0.084373290443603
0.083543246279361
0.082677126227648
0.081776084676599
0.080839293258666
0.079868762222217
0.078862101460918
0.077822201726722
0.094915429275558
0.094882096744705
0.094814515996701
0.094711570876983
0.09457246231353
0.09439692918092
0.094185037828
0.093936873981029
0.093652389285241
0.093331421257387
0.092973756432514
0.092579189422771
0.092147520141545
0.091678575351512
0.091172162505358
0.09062813269506
0.090046289542345
0.089426547785687
0.08876870784293
0.088072820302408
0.087338638938344
0.086566454051644
0.085755843968521
0.084907531943938
0.084020693286594
0.083096835410926
0.082134251922185
0.081135634827882
0.08009670325385
0.079020997099683
0.096736651928764
0.096703415664448
0.096636008491734
0.096533323687756
0.096394558603607
0.096219418515831
0.096007909065654
0.095760037703838
0.095475665217022
0.095154529998807
0.094796306543756
0.094400669176512
0.093967280442745
0.093495827014801
0.092985952926835
0.092437356561493
0.091849648947567
0.09122259259739
0.090555754988518
0.089849061332635
0.089101963894891
0.088314706353952
0.087486436175071
0.086618000741778
0.08570789907383
0.084758063708312
0.083765640573447
0.082734166096008
0.081656978328211
0.080538452176966
0.09882610130502
0.098793228783122
0.098726545441932
0.098624954009219
0.098487644253443
0.098314274920065
0.098104770781464
0.097859039009652
0.097576827424797
0.097257752181238
0.096901348958106
0.096507142224116
0.096074622758663
0.095603301596815
0.095092617384771
0.09454207552746
0.093951043300136
0.0933190879678
0.092645480437465
0.091929980085096
0.091171654929977
0.09037067441412
0.08952563945696
0.088637524694793
0.087703983566395
0.086727431836933
0.085703612865794
0.084637029259486
0.083518180393344
0.082352334851298
0.10112438436541
0.10109223985573
0.10102702287672
0.10092764612283
0.10079328403799
0.10062353763369
0.10041823591834
0.10017716713546
0.099899944919528
0.099586041276359
0.09923482849571
0.098845653762789
0.098417803429627
0.097950578541065
0.097443171084344
0.096894852985259
0.096304695421784
0.095672024855142
0.094995748452659
0.094275413420244
0.093509615042769
0.092698411317798
0.09183973511071
0.090934678637976
0.089979878607249
0.088978268848442
0.087923945706325
0.086822446594194
0.085661022285945
0.084445761306928
0.10357753910626
0.10354656771469
0.10348371927884
0.10338792231521
0.10325833099782
0.10309447707197
0.10289608117501
0.10266279883271
0.10239409281752
0.10208927133875
0.10174752027137
0.10136798438459
0.10094971598297
0.10049177363899
0.099993062845117
0.099452582548403
0.098869057004927
0.098241527068242
0.097568470536078
0.096849174337378
0.096081673586415
0.095265870044805
0.094398906655203
0.09348196530861
0.09251048858905
0.09148792888733
0.090406489698398
0.089272744277211
0.088070348246397
0.086805990009659
0.10613649994159
0.10610720874192
0.10604775526771
0.10595709520504
0.10583436293791
0.10567901167188
0.10549064190578
0.10526876526838
0.10501268128581
0.10472151918543
0.10439426029392
0.10402982562991
0.10362700789131
0.1031845958
0.10270117517868
0.10217543640636
0.10160571057905
0.10099070792276
0.10032841565863
0.099617805054516
0.098856272283133
0.098043500079793
0.097175735145915
0.096254196308553
0.095272968452125
0.094236007720519
0.093133371270346
0.091972639441777
0.090733549048134
0.089422924494981
0.10875685125029
0.10872978930185
0.10867484291206
0.10859101025663
0.10847741133015
0.10833341508761
0.1081584922601
0.10795200237276
0.10771307471023
0.10744065066536
0.10713349560767
0.10679029178278
0.10640955484376
0.10598978018298
0.1055292078455
0.1050261871209
0.10447862231664
0.10388484400833
0.10324230861891
0.10254959793138
0.10180342860216
0.10100315677066
0.1001440831784
0.099227347604055
0.098245545145148
0.097203119649101
0.096087609926337
0.094907778530187
0.09363884054396
0.092287556370166
0.11139874664334
0.11137448426812
0.1113252010186
0.11124995537232
0.11114786214902
0.11101820504354
0.11086031971187
0.11067340956716
0.11045643225887
0.11020813927734
0.10992707645657
0.10961167931918
0.10926017857377
0.10887076034932
0.10844130657765
0.10796979447574
0.1074536869305
0.10689088331406
0.10627829573537
0.10561402642283
0.10489410696174
0.1041174288725
0.10327834040465
0.10237775987175
0.10140665902736
0.10037008006351
0.099252345370451
0.098064033671194
0.096774678147718
0.095390164414005
0.11402690955011
0.11400601614072
0.11396355192657
0.11389865558442
0.11381044898835
0.11369813374927
0.1135609102269
0.11339782723978
0.11320767545066
0.11298902199126
0.11274019807621
0.11245939460026
0.11214455839797
0.11179356325852
0.11140392853988
0.11097324806355
0.11049852640498
0.10997721073631
0.1094056342911
0.10878139372134
0.10809976980412
0.10735914373278
0.10655284696133
0.10568140952221
0.10473430082795
0.10371660813615
0.10260992303133
0.10142604924565
0.10012757508005
0.098721412702422
0.11661064625813
0.11659366999527
0.11655913879068
0.11650629245141
0.1164342746802
0.11634221254398
0.11622917636545
0.11609406805173
0.11593552253344
0.11575193592273
0.1155414383385
0.11530198854054
0.1150312605867
0.11472682516913
0.11438584571698
0.11400553639044
0.11358244093694
0.1131135488414
0.11259459368219
0.11202265333567
0.11139220945848
0.11070111321133
0.10994157802928
0.10911372412636
0.10820538188548
0.10722154166324
0.10614128359738
0.10497665857127
0.10368389341194
0.10226975260482
0.11912382723686
0.11911127444809
0.11908571039786
0.11904649647315
0.11899281325599
0.11892372435198
0.11883818096238
0.11873495235207
0.11861253575876
0.11846917699438
0.11830282698836
0.11811123471752
0.11789182350578
0.11764188269101
0.11735823976096
0.11703774778345
0.11667650322497
0.11627104925167
0.11581651963183
0.11530947072629
0.11474356419283
0.11411610065512
0.11341812720054
0.11264929863945
0.11179569529338
0.11086216164684
0.10982496287783
0.10869632978523
0.10742740194064
0.10602117638576
0.12154481032833
0.121537131655
0.12152145153982
0.12149728088171
0.1214638554607
0.12142018573476
0.1213651179539
0.12129730895955
0.12121514298966
0.12111674338384
0.12099991175451
0.1208622190037
0.12070087046024
0.12051290768781
0.12029485560276
0.12004323856569
0.11975373638316
0.11942247241471
0.11904400473254
0.1186143808511
0.11812645401725
0.1175769591002
0.11695577482262
0.11626204228828
0.11548004417285
0.11461442432138
0.1136384102001
0.11256446378497
0.11133788515897
0.109957515265
0.12385628235883
0.12385385857156
0.12384884765557
0.12384092796316
0.12382940348487
0.12381325181878
0.12379123469698
0.12376192052432
0.12372361001485
0.12367433761201
0.12361179210021
0.12353340577169
0.12343620799512
0.12331703660031
0.12317215989158
0.12299781903216
0.12278932463978
0.12254242250717
0.12225114082544
0.1219110503112
0.12151423421577
0.12105687092128
0.12052769352198
0.11992529976405
0.1192321993109
0.11845272469418
0.11755712493853
0.11655767099991
0.11539483456198
0.11405866483338
0.12604502742279
0.12604816398246
0.12605444615666
0.12606374369038
0.1260754555854
0.12608853725217
0.12610168377555
0.12611340482726
0.12612195277229
0.12612531159559
0.12612109934049
0.12610665562989
0.12607888380565
0.12603447070934
0.12596948484933
0.12587994105075
0.12576084268727
0.12560761524183
0.12541382102157
0.12517460704114
0.12488134714491
0.12452970068641
0.12410731197437
0.12361219555879
0.12302523775819
0.12235006138284
0.12155482325488
0.12064945483798
0.1195744561993
0.11830476968714
0.12810161347863
0.12811053029829
0.12812856994215
0.12815581620437
0.1281917690701
0.12823538033864
0.12828530507774
0.12834002489843
0.12839778019255
0.12845654570498
0.12851391463185
0.12856718449041
0.12861318897914
0.12864852406111
0.1286691243333
0.12867084464259
0.12864845480831
0.12859712932412
0.12851004422665
0.12838199098934
0.12820371990004
0.1279704239471
0.12766878132991
0.12729614909882
0.12683215677186
0.12627894279087
0.12560421346419
0.1248126520583
0.12384810791175
0.12267007786456
0.13002006369387
0.13003490234192
0.13006499682761
0.13011066376323
0.13017152172691
0.13024653575658
0.13033434436914
0.13043343323864
0.13054206972955
0.13065826144965
0.13077962392413
0.13090346447337
0.13102660718909
0.13114562112087
0.13125638015154
0.13135465232053
0.13143505966233
0.13149260387437
0.1315201719624
0.13151227294374
0.1314591480829
0.13135556233108
0.13118743379535
0.13095132892241
0.13062623066222
0.13021194915139
0.12967722232476
0.12901977717124
0.12818711190599
0.12712497681261
0.13179744006729
0.13181826559585
0.13186055562359
0.13192487636835
0.13201097548228
0.13211784600714
0.13224413598763
0.13238837008686
0.13254888390983
0.13272375988333
0.13291068398335
0.13310702504237
0.13330966045002
0.13351519567748
0.13371952216955
0.13391839286884
0.13410637956445
0.13427838789728
0.13442713825934
0.13454692427062
0.13462763277572
0.13466361301056
0.13464025663929
0.134553215372
0.13438133540333
0.13412190163521
0.13374528491862
0.13324254900236
0.13256342248995
0.13163970249871
0.1334334178979
0.13346023642268
0.13351473356084
0.13359773191995
0.13370911399979
0.13384791068306
0.1340127988405
0.13420238034652
0.1344151072667
0.13464917770124
0.13490239479726
0.13517223767169
0.13545570321257
0.13574949457524
0.13604960968471
0.1363518532257
0.13665086399608
0.13694150982171
0.13721650222928
0.13746995107707
0.13769160811849
0.13787539043377
0.13800640127781
0.13807933664219
0.1380728917462
0.13798242678396
0.1377793015367
0.13745080591649
0.13694716500766
0.13618504324032
0.13492984516612
0.13496260594927
0.13502921045856
0.13513073680867
0.13526721808433
0.13543772740308
0.1356409496516
0.13587559711376
0.13614029851803
0.13643340722025
0.13675288938819
0.13709637931862
0.13746105768134
0.13784377345618
0.13824072330569
0.13864781692915
0.13905991226171
0.13947187477125
0.13987664031758
0.1402680911087
0.1406361981458
0.14097430022758
0.14126764970499
0.14150990477393
0.14167940383297
0.14177024467179
0.14175224524841
0.1416134327122
0.14130223547988
0.14072761266274
0.13629037710816
0.13632890320504
0.13640733588811
0.136527034264
0.13668820544795
0.13688999256507
0.13713103510116
0.13741019023248
0.1377263021467
0.13807788969488
0.13846312329422
0.13887983792968
0.13932546365483
0.13979704115119
0.14029104962656
0.1408035222359
0.14132967871387
0.14186435549838
0.14240100727594
0.14293312876001
0.14345150405935
0.14394839701864
0.14441029902308
0.14482892750402
0.14518378284079
0.14546666960544
0.14564474376862
0.14570626704371
0.14559040411507
0.14522198478855
0.13752035335161
0.13756422689436
0.1376537483987
0.13779084186079
0.13797590352217
0.13820799922282
0.13848567386364
0.13880834558576
0.1391749924215
0.13958419159122
0.14003434875385
0.14052353133055
0.14104944765896
0.14160937799131
0.14220017200677
0.14281803873438
0.14345868329624
0.14411685595143
0.14478672310392
0.14546107920383
0.1461321391236
0.14679012730631
0.14742465422384
0.14802269124968
0.1485701911504
0.14905015591963
0.14943914076792
0.14970964607159
0.14979462907239
0.14961071837626
0.13862687196445
0.13867568691278
0.13877492199012
0.13892771923146
0.13913511710489
0.13939560345972
0.1397058850819
0.14006860623481
0.14048244994219
0.14094578781361
0.14145730638637
0.14201536886119
0.14261797268251
0.14326263930143
0.14394661811726
0.14466641313474
0.14541834115322
0.14619731204523
0.14699836082847
0.14781372431
0.14863717087804
0.14945651556855
0.15026547625254
0.1510439373164
0.15178955726563
0.15246614619525
0.15308358910943
0.15356875510644
0.15391992175326
0.15388314789715
0.07555751161081
0.074630392075899
0.073679010069581
0.07270489793056
0.071709763100253
0.070694960360493
0.06966141093878
0.068609812075299
0.067540905101047
0.066455598892763
0.065354939452843
0.064240039313173
0.063112041071486
0.061972115299074
0.060821466942349
0.059661335838524
0.058492989337187
0.057317710736961
0.056136787288907
0.054951501099879
0.053763126740934
0.052572936688914
0.05138222043599
0.050192305436862
0.049004552747648
0.047819854569469
0.046639049989268
0.045463376233844
0.044294195898663
0.043132823520131
0.041980484908376
0.040838330648983
0.039707467677772
0.038588973156107
0.037483894924338
0.036393238422124
0.035317963434335
0.034258969745147
0.033217107769638
0.032193156605609
0.031187849510952
0.030201829423328
0.029235707941793
0.028289983490044
0.027365158624734
0.026461591947242
0.025579681360448
0.024719642741132
0.023881647164844
0.023065597811111
0.075997164258638
0.075062329866904
0.074099575710462
0.073113034284638
0.072105825393377
0.071079389949036
0.070034005631627
0.068969706472465
0.067886927224799
0.066786567639027
0.065669741057084
0.064537577648594
0.063391185928605
0.062231691474403
0.061060271688014
0.059878164536664
0.058686659892859
0.057487086767007
0.056280800972737
0.055069175293496
0.053853587372281
0.052635402894837
0.051415940391619
0.050196428986627
0.048977987553547
0.047762345767689
0.046551311810693
0.045346202114097
0.044148191344
0.042958488817026
0.041778355232528
0.040609070735957
0.03945189782969
0.038308056127143
0.037178714163379
0.036064981228696
0.034967913271781
0.033888502752721
0.032827686958449
0.031786324690714
0.030765217387798
0.029765077137196
0.028786566508826
0.027830256144534
0.026896665476571
0.025986257596932
0.025099391426472
0.024236564179559
0.023398025287842
0.022585002835393
0.076822562667999
0.075862042383464
0.074865469255198
0.073842734736178
0.072800161397689
0.071739594218378
0.070660235174596
0.069561013750016
0.068441958460376
0.067304124107093
0.066148898486323
0.064977563914638
0.063791265716613
0.062591136939411
0.061378386307638
0.060154314899371
0.058920295301109
0.057677746353068
0.056428115583733
0.055172868485509
0.053913481699868
0.052651440005096
0.051388244216621
0.05012543350791
0.048864623878028
0.047607269161081
0.046354743959187
0.045108475975478
0.043869878102434
0.04264034338652
0.041421252906386
0.040213966184472
0.039019805715075
0.037840043040398
0.036675899439985
0.035528537848103
0.034399064149827
0.033288509041157
0.032197840542985
0.031127939395843
0.030079625196748
0.02905361849848
0.028050573216973
0.027071061960833
0.026115540278876
0.025184543957122
0.024278286928538
0.023397794377657
0.022543465263967
0.021719515816351
0.077986755091636
0.076983814842493
0.075933256560218
0.074854123666669
0.073757483672373
0.072645561076512
0.071515817851611
0.070365521088285
0.069194121701255
0.068002916083982
0.066793678962538
0.065567875732634
0.064326654536891
0.063071105503794
0.061802428507214
0.060521960651861
0.059231138503664
0.057931458600747
0.056624455693246
0.055311694194515
0.053994762209938
0.052675263668696
0.0513548068691
0.050034988283724
0.048717368563785
0.047403496683348
0.046094921513135
0.04479316889657
0.043499745098511
0.042216131255973
0.040943780196932
0.03968411143706
0.038438510751339
0.037208320417228
0.035994837267588
0.034799293688816
0.033622864302726
0.032466641873399
0.031331660972696
0.030218856335303
0.029129104578338
0.028063171983706
0.027021754828802
0.026005496210561
0.025014858322089
0.024050598291611
0.023112873277924
0.02220358714937
0.021323479133253
0.020481042341203
0.079461371410204
0.078402287950755
0.07728043225888
0.076127453263319
0.074960640345977
0.073782463197978
0.072587920863783
0.071372061768575
0.07013361222412
0.068874218060608
0.067596165822923
0.06630114467697
0.064990287356613
0.063664614111442
0.062325303725149
0.060973732040422
0.059611409181703
0.05823991908756
0.056860890540028
0.055475988015565
0.054086904515856
0.052695349570687
0.051303034464307
0.049911659773819
0.048522909558957
0.047138443962986
0.045759897591527
0.044388878050298
0.043026965592023
0.041675711274629
0.040336638600597
0.039011238671707
0.037700970731909
0.036407246564465
0.035131433007164
0.033874828182582
0.032638680381048
0.031424147272452
0.030232337821532
0.029064241329925
0.027920805207705
0.026802842971729
0.02571110886729
0.024646311940386
0.023608917554083
0.022599909078703
0.021619362706974
0.020670261358717
0.019753970958587
0.018884929182824
0.081226584007292
0.080099315373933
0.078890176924557
0.077647163281945
0.076395312654884
0.075137143997936
0.073864423386667
0.072569431960609
0.07125006350373
0.06990845803896
0.068547559749993
0.06716933058639
0.065774872576065
0.064365111892686
0.062941196816727
0.061504544715226
0.060056746843425
0.058599482927665
0.057134483908753
0.055663523864076
0.054188413797133
0.052710987032389
0.051233079393332
0.049756511237926
0.04828307500673
0.046814525969865
0.045352584781555
0.043898936293452
0.042455234956049
0.041023105248429
0.039604146026657
0.038199922287836
0.036811969137089
0.035441773468529
0.034090788183065
0.032760395061433
0.031451938619371
0.030166655169989
0.028905753950394
0.02767029135132
0.026461320348029
0.025279705291953
0.024126299860038
0.023001876033059
0.021906960903631
0.020842786644444
0.01980944661378
0.018811165145889
0.01785023511565
0.016948141426483
0.083267774841691
0.082061701649094
0.080750378766607
0.079402243250077
0.078051680048992
0.076700983210654
0.075337834668779
0.073951170600911
0.072537953199373
0.071100979966554
0.069644007234579
0.06816931472291
0.066677951288498
0.065170720226009
0.063648727996571
0.062113436964595
0.060566528525867
0.059009787962939
0.057445059768984
0.055874242214024
0.054299282136512
0.052722155884135
0.051144842091562
0.049569296918008
0.047997438247454
0.046431129922066
0.04487218800759
0.043322383782248
0.041783453109057
0.040257097634946
0.038744993930028
0.037248784867644
0.035770093219553
0.034310495572243
0.032871547975373
0.031454725144872
0.030061482970348
0.028693142949526
0.027351036015786
0.026036284934819
0.024750075164272
0.023493308719642
0.022266979132905
0.021071892426614
0.019908693917236
0.01877882218029
0.017682488975981
0.016625235341878
0.015610800511491
0.014669188884583
0.085574476664172
0.084280307928524
0.082852894701852
0.081385566224267
0.079923679712835
0.078468922087835
0.077003968300923
0.075513842583261
0.073994518224611
0.072449632470658
0.0708839038331
0.069299970522592
0.067698807345075
0.066081067854128
0.064447806298521
0.062800535025647
0.061141038159976
0.059471219903222
0.057793050514374
0.056108566718206
0.054419870504236
0.052729104984178
0.051038417365312
0.04934992471109
0.047665692298909
0.045987711363466
0.044317910498295
0.042658158702727
0.041010279710331
0.039376056243366
0.037757249460899
0.036155589208549
0.034572798644263
0.033010553100603
0.031470525938262
0.029954296442991
0.028463458975704
0.02699943564696
0.025563717482417
0.024157502519457
0.022782163926818
0.021438636961001
0.020128134326234
0.018851466254767
0.017609513592988
0.016403871420914
0.015235082504508
0.01411004258239
0.013034589003702
0.012048477086718
0.088138798019269
0.086748287672761
0.085191628658199
0.083592001541655
0.082007387723191
0.08043821840494
0.078861015716358
0.077256326098261
0.075619201281769
0.073954380743161
0.072267689125204
0.070562131791151
0.068838580748633
0.067097523460243
0.065339960090276
0.063567462066292
0.0617819315962
0.059985406752339
0.058179996957794
0.056367892816326
0.054551371548715
0.052732767074604
0.050914420656432
0.049098634540684
0.047287642892759
0.045483589205054
0.043688537136727
0.04190447277169
0.040133327640315
0.038376985706317
0.03663731418728
0.034916149077121
0.033215335970503
0.031536669837039
0.029881972935575
0.028252954261327
0.026651386085916
0.025078810165818
0.023536928033348
0.022027019712748
0.020550715655841
0.019108962841544
0.017703293842081
0.01633445633745
0.015003723147489
0.013712716815254
0.012462592925265
0.011261480739169
0.010118160578912
0.0090832643542077
0.090954667708714
0.089460929964493
0.087762361987257
0.086017837739268
0.084300005422271
0.082607183831895
0.080908265362446
0.079178646685155
0.077412601758217
0.075616324076155
0.073796913199756
0.071957729410267
0.070099487323278
0.068222485963906
0.066327680090708
0.064416719157035
0.062491642339278
0.060554638073933
0.058607970062324
0.056654000504903
0.05469520510485
0.052734136665966
0.050773362040183
0.048815403363724
0.046862703339129
0.044917587314239
0.042982283681453
0.041058925701336
0.039149581699789
0.037256262604126
0.035380967636252
0.033525662593147
0.031692344897539
0.029882955735245
0.028099502681896
0.026343849972332
0.024617993526653
0.022923615356919
0.021262690351197
0.019636584663004
0.018047276836882
0.016495694031935
0.014983829689545
0.013512273365731
0.012082918448714
0.010697215560865
0.0093573536100721
0.0080724282608717
0.0068553004024338
0.0057684203890024
0.094014996967116
0.092413100894837
0.090561252027407
0.088660346493075
0.086799967605945
0.084975233306295
0.083145864203556
0.081281579145368
0.079376078797156
0.077437336097948
0.075473886995585
0.07348943998137
0.071484487909631
0.069459106958107
0.067414216192075
0.065351570632346
0.06327336890594
0.061181964568609
0.059079791317882
0.056969404927138
0.054853508121857
0.052734906352862
0.05061642983902
0.048500859818826
0.046390887817787
0.044289059779235
0.04219780671218
0.04011944568906
0.038056217926998
0.036010294117948
0.033983839709755
0.031978983457983
0.029997914864111
0.028042757469267
0.026115753438678
0.0242189599715
0.022354660028196
0.02052470895943
0.01873143977345
0.016976316638678
0.015261789141788
0.01358872658001
0.011959776474806
0.010375234991469
0.0088379390565395
0.0073488645835273
0.0059118322511456
0.0045364087800687
0.0032410095595851
0.002100433031744
0.09731378832087
0.095598716815993
0.093582501248747
0.091515471362461
0.089505057743149
0.087541409757449
0.085573763683633
0.083565879540881
0.081511131106997
0.079419576557174
0.077301335036049
0.075160444106475
0.072997101534151
0.070811130125409
0.068603435422041
0.066375912424001
0.064130941834897
0.061871057230544
0.059598879775978
0.057317183617711
0.055028931343536
0.052737220187293
0.050445188357923
0.048155917886986
0.045872396242198
0.043597433550969
0.041333709677648
0.039083775001899
0.036850092491288
0.034635038105832
0.032440991239368
0.030270289717169
0.028125369103125
0.026008585706423
0.023922480842743
0.021869357737992
0.019851865601935
0.017872080597092
0.015932795701846
0.014035596289191
0.012183550620911
0.010377429071149
0.0086207771137698
0.0069134162363193
0.0052595611922965
0.003659269188294
0.0021188093918754
0.00064741661333055
-0.00072904843214626
-0.0019234138117627
0.10084017259402
0.099008304898987
0.096819742048092
0.094579402730907
0.09241284887676
0.090304127652534
0.088191263495317
0.086031816255377
0.083818902652423
0.081564940106513
0.079281816835546
0.076973863201523
0.07464087955764
0.072282409820837
0.069899385221013
0.067493883139139
0.065068487976924
0.06262592533013
0.060169021500308
0.05770079534566
0.055224502996632
0.052743575093246
0.050261515422527
0.047781788483633
0.045307716310717
0.04284235601555
0.04038873437445
0.037949721739721
0.035528059787761
0.033126383035437
0.03074734426836
0.028393551351853
0.026067755039846
0.023772611351768
0.021511042024384
0.019285667494489
0.017099598856239
0.014955202774283
0.012855849714814
0.010803296290716
0.0088013933632416
0.0068507948566846
0.0049562249276886
0.0031168327922327
0.0013387644772467
-0.00037943606356041
-0.0020279428781425
-0.0035990716984826
-0.0050571032200434
-0.0063032290812285
0.1045817536862
0.10263133915389
0.10026391003728
0.09784554263873
0.095519350726795
0.093260968111432
0.090996836478591
0.08867871947595
0.086299688587311
0.083874676736826
0.081417415509704
0.078932457951094
0.076419119091241
0.073876657068824
0.071306076726823
0.068709680418817
0.066090276108972
0.063450793806983
0.060794283991011
0.058124038707332
0.055443643449826
0.052756890406695
0.050067692920334
0.047380004752421
0.04469757975041
0.042023708528182
0.039361832744123
0.036715262442474
0.034087088166299
0.031480264194143
0.028897791259933
0.02634262922629
0.023817933226436
0.021326747479101
0.01887247586714
0.016458151137411
0.014087466190608
0.011763174565684
0.0094893653409397
0.0072680517464914
0.0051040429572653
0.0029979089889176
0.00095582979291317
-0.0010238718194871
-0.0029325211026186
-0.004773766959949
-0.0065328301166832
-0.0082052915524012
-0.0097424428609238
-0.011035706816462
0.10852372444934
0.1064548201558
0.10390447390201
0.10130564888978
0.098818100574298
0.096407276992371
0.093987379030565
0.091504561765088
0.088952469880889
0.086348905636868
0.083709327028445
0.081038295283783
0.078334576018955
0.075597185810493
0.072827260743077
0.070027363642595
0.067200541191984
0.06434993738486
0.061478846679005
0.058590869620911
0.055689969603985
0.052780400449277
0.049866501598096
0.046952600824185
0.044042872280676
0.041141522477601
0.038252228445133
0.035378635747061
0.032524341231256
0.02969274897045
0.026887301386865
0.02411141167028
0.021368747764666
0.01866285721129
0.015997752288564
0.01337700069723
0.010805027974326
0.0082850955199632
0.0058221928013844
0.0034186945911656
0.001080585630912
-0.0011915801010657
-0.0033898903172785
-0.0055169054658941
-0.0075609087415049
-0.009528287161691
-0.011397905957219
-0.013170593715176
-0.014780854634897
-0.01611381015943
0.11264737184561
0.11046225103288
0.10772795484172
0.10494867007821
0.10230013535382
0.09973619662139
0.097157717359329
0.094505480865687
0.091774685373031
0.088986396899808
0.086157539547153
0.083292395938748
0.080389130220402
0.077446593980695
0.074466127333258
0.071450582724284
0.068403250971105
0.065327497846089
0.062226879246209
0.059105336316858
0.055967245727205
0.052817333369827
0.049660473463973
0.046501491781469
0.043345220632797
0.040196431102038
0.037059432404932
0.033938327250523
0.030837226386049
0.027760115892414
0.024711013508087
0.021693916658735
0.018713134117207
0.01577287123917
0.012877894950402
0.010032477727206
0.0072419522404982
0.0045102522716329
0.0018434897567824
-0.00075547393243841
-0.003279182943336
-0.0057270523102929
-0.0080890667015927
-0.010368728738436
-0.012550840777283
-0.014644810550943
-0.016622264011563
-0.018490540830327
-0.020163988554725
-0.021525683479515
0.11693076130639
0.11463281469822
0.11171787197659
0.10876134055863
0.10595442983774
0.10323858393454
0.10050027530889
0.097675448646582
0.094761933861948
0.091784306309824
0.088760591018555
0.08569449249975
0.082583548772572
0.079426551734023
0.076225121747651
0.072982414376279
0.069701954285046
0.066387330961002
0.06304238332398
0.059671426840836
0.0562793011867
0.052871260294605
0.049452792126783
0.046029382817742
0.042606476102217
0.039189489838
0.035783494878019
0.032393254322387
0.029023512025345
0.025678958631655
0.022364329899971
0.019084376412868
0.015844194117139
0.012648851732624
0.009504032605897
0.0064149646590058
0.0033880532819084
0.00042818269146878
-0.002457221979853
-0.0052645633782628
-0.0079846208561571
-0.01061667648033
-0.013148111908351
-0.015583563023529
-0.017903675807557
-0.020121337179711
-0.022200612183831
-0.02415564722676
-0.025880258430828
-0.027253384554481
0.12135149934515
0.11894525052602
0.11585423332691
0.1127268485548
0.10976752601655
0.10690294182609
0.10400499976922
0.10100615145546
0.097907812650275
0.094738014015056
0.091515403059554
0.08824282997012
0.084917243816635
0.081537520089973
0.07810563990785
0.074625059758004
0.071099509649727
0.067532791325345
0.063929041618068
0.060292978031806
0.056629944377399
0.052945790530333
0.049246687629149
0.045538885711361
0.041828576454595
0.038121901344448
0.034424739135032
0.030742690504128
0.02708131554619
0.02344618124148
0.019842914772199
0.016277222959017
0.012755162493921
0.0092829224500449
0.0058672844839621
0.0025147841497193
-0.00076695991884424
-0.0039716569573083
-0.0070905034570596
-0.010118605924731
-0.013044921634721
-0.015868091999769
-0.018572598056496
-0.021164190511504
-0.023618381663514
-0.025952539273708
-0.028121453243071
-0.030148161179942
-0.031905613059384