/*--------------------------------*- C++ -*----------------------------------*\
| =========                 |                                                 |
| \\      /  F ield         | OpenFOAM: The Open Source CFD Toolbox           |
|  \\    /   O peration     | Version:  2112                                  |
|   \\  /    A nd           | Website:  www.openfoam.com                      |
|    \\/     M anipulation  |                                                 |
\*---------------------------------------------------------------------------*/
FoamFile
{
    version     2.0;
    format      ascii;
    arch        "LSB;label=32;scalar=64";
    class       surfaceScalarField;
    location    "5";
    object      phi;
}
// * * * * * * * * * * * * * * * * * * * * * * * * * * * * * * * * * * * * * //

dimensions      [0 3 -1 0 0 0 0];

oriented        oriented;

internalField   nonuniform List<scalar> 
43645
(
0.39512607670628
-7.2036122567977e-06
0.39514813664937
-2.2059907610141e-05
0.39518570971883
-3.7573031132552e-05
0.39523977643759
-5.4066679087786e-05
0.39531116872206
-7.1392244528591e-05
0.39540031543002
-8.9146668206938e-05
0.39550722805313
-0.00010691258391279
0.39563161314806
-0.00012438505628856
0.39577299042132
-0.00014137723533169
0.39593077780455
-0.00015778734589241
0.39610433251272
-0.00017355467159562
0.39629298401931
-0.00018865147060823
0.39649604413911
-0.0002030600846032
0.39671283786393
-0.00021679369023141
0.39694269038218
-0.00022985248450662
0.39718495885549
-0.00024226844019826
0.39743897656097
-0.00025401767325693
0.39770412538943
-0.00026514879689764
0.3979797255036
-0.00027560008353776
0.39826523859914
-0.00028551306559956
0.39856000248967
-0.00029476386158159
0.3988637032485
-0.00030370073059696
0.399175654639
-0.00031195136329638
0.39949590030511
-0.0003202456396826
0.39982340936796
-0.00032750903751471
0.40015879343617
-0.00033538404367287
0.4004999735827
-0.00034118012315653
0.40084885953195
-0.00034888592700174
0.40120091649157
-0.00035205693900367
-0.00036034486098356
0.40156126137268
0.37294915977449
-1.3808595871536e-05
0.37296948760453
-4.2387684276962e-05
0.37300448442328
-7.2569795528735e-05
0.37305511220336
-0.00010469440474266
0.3731221807498
-0.00013846073710125
0.37320612165185
-0.00017308751707782
0.37330697440443
-0.00020776528424974
0.37342449089913
-0.00024190149954683
0.37355824558295
-0.00027513186870897
0.37370771552159
-0.00030725723491353
0.37387231865618
-0.00033815775761978
0.37405144523876
-0.00036777800545302
0.37424446737919
-0.00039608217842665
0.37445076982757
-0.00042309609286493
0.37466973652012
-0.0004488191324756
0.37490078145942
-0.00047331333579316
0.37514329209588
-0.00049652826723061
0.37539670210365
-0.00051855876306801
0.37566038166094
-0.00053927960048285
0.37593384111065
-0.00055897247585942
0.37621646512548
-0.00057738783827985
0.37650798530245
-0.00059522087035088
0.37680776150016
-0.00061172752516513
0.37711588326581
-0.00062836737046294
0.37743137209727
-0.00064299783556029
0.37775488082705
-0.00065889274105007
0.37808439388608
-0.00067069315130597
0.37842184532089
-0.00068633733238919
0.37876280975463
-0.00069302134573987
-0.00070996947713208
0.37911243439747
0.35201723243988
-2.0143454267221e-05
0.35203667139925
-6.1826584401487e-05
0.3520699567719
-0.00010585510874331
0.35211804523954
-0.00015278281335614
0.35218174085196
-0.00020215629145481
0.35226148441113
-0.0002528310190626
0.35235735013432
-0.00030363095138616
0.35246914697858
-0.00035369828862872
0.35259652051733
-0.00040250535345752
0.35273902631649
-0.00044976298094854
0.35289616356226
-0.00049529495152644
0.35306740500168
-0.00053901939391614
0.35325220440735
-0.00058088153448557
0.35345002832028
-0.00062091995714549
0.35366033953756
-0.00065913030250696
0.35388263108914
-0.00069560484111026
0.35411636303404
-0.00073026016733278
0.35436104403142
-0.00076323971662641
0.35461610707322
-0.00079434259998167
0.3548811356398
-0.00082400100112789
0.35515556214852
-0.00085181430725925
0.35543919565823
-0.00087885434133095
0.35573141697315
-0.00090394880298733
0.35603241353536
-0.00092936389660501
0.35634117591287
-0.00095176017870847
0.35665850963745
-0.00097622643233119
0.35698225205543
-0.00099443553772062
0.35731461347092
-0.0010186987177843
0.35765076125829
-0.0010291691056378
-0.0010555705718472
0.35799636238044
0.33226003946624
-2.6138911821872e-05
0.33227842954167
-8.0216608293374e-05
0.33230992113016
-0.00013734664527674
0.33235545534001
-0.00019831697147742
0.33241582872271
-0.00026252962322279
0.33249149767409
-0.0003284999202793
0.33258257938557
-0.00039471261376762
0.33268894810282
-0.00046006695761226
0.33281032904244
-0.00052388624598263
0.33294636595846
-0.00058579985072868
0.33309665014333
-0.00064557909142515
0.33326074906845
-0.00070311827494719
0.33343821092581
-0.0007583433490811
0.33362859791303
-0.00081130690250917
0.33383146514044
-0.00086199748942567
0.33404639958355
-0.00091053924460398
0.33427294702577
-0.00095680757130943
0.33451070699886
-0.001000999652321
0.3347591866713
-0.0010428222364138
0.3350180610532
-0.0010828753478058
0.3352868186116
-0.0011205718318413
0.33556537084414
-0.0011574065408111
0.33585311914935
-0.0011916970765633
0.33615038624006
-0.0012266309564226
0.3364561097975
-0.0012574837066884
0.33677131717606
-0.0012914337821659
0.33709363524485
-0.0013167535792357
0.33742570278257
-0.0013507662293133
0.33776213815981
-0.0013656044588367
-0.0014029487514941
0.33810951636379
0.31361169171224
-3.1773197325751e-05
0.31362897401689
-9.7498863401728e-05
0.31365859408775
-0.00016696666620073
0.31370148982811
-0.00024121266213559
0.31375845410241
-0.00031949384865293
0.31382996258178
-0.00040000835155376
0.3139161826438
-0.00048093262882691
0.31401706399586
-0.00056094826357966
0.31413242308288
-0.00063924528815704
0.31426200399675
-0.00071538072068031
0.31440550249057
-0.00078907754268337
0.31456259339948
-0.00086020914226781
0.31473293209202
-0.00092868200145091
0.31491618992482
-0.00099456469609781
0.31511202779641
-0.0010578353232561
0.31532014151791
-0.0011186529292527
0.31554017599987
-0.0011768420178625
0.31577183748638
-0.0012326611042571
0.31601471922045
-0.0012857039373146
0.31626860575843
-0.0013367618533582
0.31653305167022
-0.0013850177125837
0.31680809540035
-0.0014324502405352
0.31709316422962
-0.0014767658767652
0.31738875365151
-0.0015222203498094
0.31769373781616
-0.0015624678441063
0.31800942664875
-0.0016071225880174
0.31833318434591
-0.0016405112508787
0.31866818317354
-0.0016857650322068
0.31900834519432
-0.0017057664566972
-0.0017559345155277
0.31936133098198
0.29600995242925
-3.7023720582055e-05
0.29602605067303
-0.00011359705845842
0.29605367311714
-0.00019458906129156
0.29609375774294
-0.0002812972392143
0.29614709737068
-0.00037283342859193
0.29621419113706
-0.00046710207096985
0.29629526237337
-0.00056200381939639
0.29639034384297
-0.00065602968838643
0.29649935227481
-0.00074825367658007
0.29662214203144
-0.00083817043491427
0.29675852384448
-0.00092545931481189
0.29690829096407
-0.0010099762219817
0.2970712175419
-0.0010916085409626
0.2972470964875
-0.0011704436043869
0.29743570709497
-0.0012464458949671
0.29763686782572
-0.0013198136251784
0.29785033553141
-0.0013903096902096
0.29807593843306
-0.0014582639733845
0.29831336803512
-0.0015231335082468
0.2985625360404
-0.001585929828164
0.29882307468161
-0.0016455563246202
0.29909517256667
-0.0017045480969237
0.2993782914502
-0.0017598847327799
0.29967313287159
-0.0018170617440239
0.29997850270173
-0.0018678376481095
0.30029604457375
-0.0019246644340764
0.30062282668396
-0.0019672933360415
0.30096264256307
-0.0020255808867065
0.30130862839079
-0.0020517522612742
-0.0021169985421572
0.30166969244179
0.27939607065796
-4.1859812441979e-05
0.27941088080093
-0.00012840715265157
0.27943633728068
-0.00022004549205361
0.2794733759672
-0.00031833587710489
0.27952278906429
-0.00042224647803765
0.27958510041904
-0.00052941337896215
0.27966059245067
-0.00063749580556162
0.27974938571085
-0.00074482290412258
0.27985150304295
-0.00085037096570993
0.27996691599925
-0.00095358334933579
0.28009555817731
-0.0010541014525844
0.280237349954
-0.0011517679595166
0.28039219360872
-0.0012464521581686
0.28056001386446
-0.0013382638236997
0.28074071930335
-0.0014271512990626
0.28093426343007
-0.0015133577180743
0.28114052766521
-0.0015965738930739
0.28135947752649
-0.0016772138031941
0.28159091702289
-0.0017545729745879
0.28183490359216
-0.0018299163679812
0.28209116258576
-0.0019018152900309
0.28236005556576
-0.0019734410491127
0.28264109171784
-0.0020409208581362
0.28293520873658
-0.0021111787361952
0.28324114591519
-0.0021737748010544
0.28356092354175
-0.0022444420349389
0.28389129609905
-0.0022976658683665
0.28423674509151
-0.0023710298544073
0.28458957612998
-0.0024045832762798
-0.0024874675976041
0.28496004521053
0.26371459620721
-4.6246523712234e-05
0.2637280048845
-0.00014181578138269
0.26375110819161
-0.00024314875047048
0.26378483509958
-0.00035206273676762
0.26382997350722
-0.00046738483841856
0.26388707043018
-0.00058651025558042
0.26395646783835
-0.00070689316876883
0.26403837611376
-0.00082673113563705
0.26413292767021
-0.00094492247981207
0.26424021550325
-0.0010608711411952
0.26436030101384
-0.0011741869236921
0.26449323730359
-0.0012847042109635
0.26463906212284
-0.0013922769408496
0.26479783963659
-0.0014970413020157
0.26496961737374
-0.0015989290024743
0.26515449315578
-0.0016982334673622
0.26535248441832
-0.0017945651244445
0.26556370560233
-0.0018884349568306
0.26578808680579
-0.0019789541490792
0.26602584525635
-0.0020676747901154
0.26627681721879
-0.0021527872252487
0.26654155196466
-0.0022381757680483
0.26681962845584
-0.0023189973233427
0.2671122428748
-0.0024037931291963
0.26741808652899
-0.0024796184300397
0.26773959551633
-0.0025659509968534
0.26807321546068
-0.0026312857878455
0.26842416183233
-0.0027219762011982
0.26878390365542
-0.0027643250756354
-0.0028676334330124
0.26916406951657
0.24891319558556
-5.014937342056e-05
0.24892509322853
-0.00015371337593474
0.24894565760698
-0.00026371308041397
0.24897580445226
-0.00038220953397647
0.24901631186296
-0.00050789220212165
0.24906774635064
-0.00063794469718802
0.2491305074608
-0.00076965423427886
0.24920489466968
-0.00090111830096733
0.24929115019295
-0.0010311779611564
0.24938948948679
-0.0011592103943085
0.24950010403289
-0.0012848014308171
0.24962318191073
-0.001407782051052
0.24975890001738
-0.0015279950115503
0.24990746483361
-0.0016456060834571
0.25006906999896
-0.0017605341347866
0.25024396183223
-0.0018731252685891
0.25043230521816
-0.0019829084799426
0.25063436978674
-0.0020904994957706
0.25085022907962
-0.0021948134137292
0.2510802665701
-0.0022977122528819
0.25132445817152
-0.0023969788001397
0.25158353601818
-0.0024972535884007
0.25185720144526
-0.0025926627250497
0.25214688135698
-0.0026934730154789
0.25245129606959
-0.0027840331179178
0.25277326918152
-0.0028879240837386
0.25310900004292
-0.0029670166246795
0.25346447290336
-0.0030774490370204
0.25383038140463
-0.0031302335533166
-0.0032569173786613
0.2542196653761
0.23494247596285
-5.3537730717523e-05
0.2349527668688
-0.00016400423380202
0.23497062652486
-0.00028157268835162
0.2349969494158
-0.00040853237723571
0.23503249678157
-0.0005434395212973
0.23507784921322
-0.00068329708317586
0.23513345961405
-0.0008252645908804
0.23519971309293
-0.00096737173672364
0.23527695854586
-0.0011084233726153
0.23536553125567
-0.001247783063853
0.2354657507501
-0.0013850208867855
0.23557793900607
-0.0015199702697898
0.2357024123572
-0.0016524683272826
0.23583951971632
-0.0017827134083491
0.23598960353612
-0.0019106179221222
0.23615305938735
-0.0020365810883576
0.23633020863964
-0.0021600577023865
0.23652147549345
-0.002281766320516
0.23672709708732
-0.0024004349799372
0.23694761434736
-0.0025182294857467
0.23718318899625
-0.0026325534230175
0.23743469150511
-0.0027487560714388
0.23770206798828
-0.0028600391832947
0.23798681795228
-0.002978222954446
0.23828798588439
-0.0030852010256484
0.23860842263488
-0.0032083608094958
0.23894453102837
-0.0033031249938814
0.23930274556502
-0.0034356635492745
0.23967307915767
-0.0035005671225491
-0.0036538018928337
0.24006996369767
0.22175581965579
-5.6387551399312e-05
0.22176442938416
-0.00017261391456645
0.22177945250376
-0.00029659576034269
0.22180175339617
-0.00043083322247055
0.22183206840196
-0.00057375448099735
0.22187098511412
-0.00072221375015116
0.22191900325223
-0.00087328268523956
0.22197658726872
-0.00102495571056
0.22204418655696
-0.0011760226198499
0.22212225039989
-0.0013258468669792
0.2222112205517
-0.0014739910006053
0.22231154810559
-0.0016202977869155
0.22242368382847
-0.0017646040152365
0.22254811660746
-0.0019071461535736
0.22268533396607
-0.0020478352487295
0.22283588024161
-0.0021871273328955
0.22300023183135
-0.0023244092627358
0.22317897037609
-0.0024605048366291
0.22337250013151
-0.0025939647081337
0.22358152886845
-0.0027272581959426
0.22380640632334
-0.0028574308523102
0.22404816717706
-0.0029905168997355
0.22430699589637
-0.0031188678780717
0.2245844919847
-0.003255719018132
0.22488007706234
-0.0033807860792816
0.22519649690481
-0.0035247806276155
0.22553081868248
-0.0036374467476535
0.22588915107007
-0.0037939959128756
0.22626193985082
-0.0038733558802629
-0.0040563775870558
0.22666451557059
0.2093092277154
-5.8683272307974e-05
0.20931610880475
-0.00017949495693594
0.20932820817046
-0.00030869507908469
0.20934635079593
-0.00044897580137641
0.20937123966661
-0.00059864330617635
0.20940346132849
-0.00075443536740325
0.20944355394493
-0.00091337525844893
0.20949205245481
-0.0010734541782732
0.20954949758042
-0.001233467704929
0.20961644327904
-0.0013927925262403
0.20969344423316
-0.0015509919171456
0.20978107177892
-0.0017079252963144
0.20987990211894
-0.0018634343207072
0.20999055660804
-0.0020178006092619
0.21011365988839
-0.0021709384974117
0.21024990071515
-0.0023233681289694
0.21039990454214
-0.0024744130606387
0.21056440873953
-0.0026250090056722
0.21074398293666
-0.0027735388782989
0.21093950650465
-0.0029227817374506
0.21115151289243
-0.0030694372147466
0.21138123195464
-0.0032202359367824
0.21162904276534
-0.0033666786644918
0.21189676379218
-0.003523440020591
0.212184029887
-0.0036680521503649
0.21249377312476
-0.0038345238413243
0.21282343690365
-0.0039671105029679
0.21317890385655
-0.0041494628421446
0.21355166332675
-0.0042461153277875
-0.004461474766233
0.21395676053115
0.19756117223795
-6.0418936524156e-05
0.19756630743483
-0.00018463010758125
0.19757544665488
-0.00031783425289833
0.19758936643413
-0.00046289553476657
0.19760872805487
-0.00061800488207461
0.19763410844089
-0.00077981570940584
0.19766607452314
-0.00094534129802956
0.19770522079669
-0.0011126004101819
0.19775216754583
-0.0012804144140044
0.19780756105575
-0.0014481859972498
0.19787205651393
-0.0016154873381559
0.1979463329157
-0.0017822016620781
0.1980310797358
-0.0019481811065898
0.19812703854629
-0.0021137593866345
0.19823495971126
-0.002278859630963
0.19835566529234
-0.0024440736795923
0.19848992112582
-0.0026086688652223
0.19863861189954
-0.0027736997512399
0.19880246705506
-0.0029373940070162
0.19898253258675
-0.003102847242821
0.19917952436841
-0.0032664289712118
0.19939487097293
-0.0034355825163127
0.19962913521685
-0.0036009428842909
0.19988440709374
-0.0037787118733096
0.2001604280258
-0.0039440730588997
0.20046059298256
-0.0041346887743024
0.20078225890014
-0.0042887763972697
0.20113189612853
-0.0044991000472661
0.20150125924927
-0.004615478426224
-0.0048653220179989
0.20190510652587
0.18647245720605
-6.1598729652853e-05
0.18647586013018
-0.00018803298626015
0.18648205620765
-0.00032403028489105
0.18649176474881
-0.00047260403077746
0.18650559742126
-0.00063183751033742
0.18652411286027
-0.00079833110499999
0.18654789631809
-0.00096912471373371
0.18657758956073
-0.0011422936116699
0.18661387881724
-0.0013167036309099
0.18665748811782
-0.0014917952593191
0.18670915811951
-0.0016671573030295
0.1867696599477
-0.0018427034545808
0.18683978091486
-0.0020183020397733
0.18692036679522
-0.0021943452340925
0.18701227847512
-0.0023707712796152
0.18711645532325
-0.0025482504973983
0.18723378993787
-0.0027260034510278
0.18736530106127
-0.0029052108465594
0.18751186634181
-0.0030839592608134
0.18767469185535
-0.0032656727300986
0.18785465782393
-0.0034463949146508
0.18805340627423
-0.0036343309417146
0.18827164076637
-0.0038191773524047
0.18851178675803
-0.0040188578409295
0.18877360538468
-0.004205891662183
0.18906107007632
-0.0044221534423958
0.1893713346207
-0.0045990409186184
0.1897117096486
-0.0048394750522288
0.19007365885069
-0.0049774276063629
-0.0052639681473484
0.19047230500448
0.17600608683715
-6.2236764731204e-05
0.17600780227137
-0.00018974837583958
0.17601112305239
-0.00032735102118366
0.17601670656681
-0.00047818750076746
0.17602510750084
-0.00064023840084851
0.17603685780448
-0.00081008136585028
0.17605255021565
-0.00098481708335543
0.17607286056722
-0.0011626039226422
0.17609852616796
-0.0013423691925394
0.17613033268751
-0.001523601740827
0.17616908936781
-0.0017059139469179
0.17621564182826
-0.0018892558797234
0.17627085727716
-0.0020735174550165
0.17633566701007
-0.0022591549343751
0.17641102388475
-0.0024461281232526
0.17649796561146
-0.0026351921939667
0.17659749286101
-0.0028255306718999
0.17671074189476
-0.0030184598523566
0.17683871846116
-0.0032119358005546
0.17698278089862
-0.0034097351414171
0.17714394663854
-0.003607560629538
0.17732407389181
-0.0038144581702393
0.17752398287596
-0.0040190863126934
0.17774641608951
-0.0042412910306702
0.17799121133316
-0.0044506868827091
0.17826278370767
-0.004693725793684
0.17855829322718
-0.0048945504154612
0.1788857387127
-0.0051669205152287
0.17923625619089
-0.0053279450630268
-0.0056532516154874
0.17962553968299
0.16612714115079
-6.2355894280913e-05
0.16612724368378
-0.00018985086496125
0.16612780793385
-0.00032791522726857
0.16612942177234
-0.00047980129554927
0.16613257972928
-0.00064339631496182
0.16613778010754
-0.00081528170200629
0.16614561283372
-0.00099264976865394
0.16615677455238
-0.0011737656013737
0.16617203821801
-0.0013576328197189
0.16619223416243
-0.0015437976478676
0.16621822226443
-0.0017319020131262
0.16625090377248
-0.0019219373530747
0.16629120625143
-0.0021138199008497
0.16634012614927
-0.0023080748001205
0.16639868717112
-0.0025046891145126
0.16646800437409
-0.0027045093672344
0.1665491636693
-0.0029066899388082
0.16664339963558
-0.0031126957910737
0.16675182126949
-0.0033203574081637
0.16687592188054
-0.0035338357267206
0.16701683606239
-0.0037484747867448
0.16717660764483
-0.0039742297283868
0.1673561878306
-0.0041986664750701
0.16755855121229
-0.0044436543891151
0.16778370328789
-0.0046758389357658
0.1680363578219
-0.004946380305144
0.16831381756844
-0.0051720101400248
0.16862464990676
-0.0054777528317827
0.16896000688393
-0.0056633020193965
-0.0060285453582541
0.16933530064987
0.15680265887987
-6.1986043676605e-05
0.15680124361188
-0.0001884355537812
0.15679921133775
-0.00032588290982543
0.15679707526481
-0.00047766517962644
0.15679526378205
-0.00064158479011613
0.15679423507232
-0.00081425295098435
0.15679456687998
-0.00099298153630571
0.15679696403043
-0.0011761627128452
0.15680222027419
-0.0013628890260079
0.15681119393267
-0.0015527712700333
0.15682477762522
-0.0017454856709481
0.15684390907882
-0.0019410687730636
0.15686955608441
-0.0021394668743733
0.15690275909578
-0.002341277780433
0.15694459029975
-0.0025465202888904
0.15699621942946
-0.0027561384682207
0.15705879354033
-0.0029692640223052
0.15713362149366
-0.0031875237177944
0.15722189262943
-0.0034086285185441
0.15732520431788
-0.0036371473904068
0.15744479585443
-0.0038680662996208
0.1575828469838
-0.0041122808345474
0.15774045279508
-0.0043562722640476
0.15792074652968
-0.0046239481016776
0.15812394316002
-0.0048790355448036
0.15835492556087
-0.0051773626847873
0.15861134334643
-0.0054284279049598
0.15890173794699
-0.0057681474119725
0.15921869911832
-0.0059802631712129
-0.0063852424489711
0.15957539623084
0.1480015299708
-6.1165044492293e-05
0.14799871318778
-0.00018561872786134
0.1479942753477
-0.00032144502675816
0.14798865602175
-0.00047204581117191
0.14798221568698
-0.00063514441389934
0.14797536673935
-0.00080740396288639
0.14796866536803
-0.00098628012595349
0.14796281226059
-0.0011703095676033
0.1479586077545
-0.0013586844837629
0.14795692198261
-0.0015510854632883
0.14795866314608
-0.0017472268012182
0.14796478656188
-0.0019471921568696
0.14797628068289
-0.0021509609649266
0.14799420856237
-0.0023592056304986
0.14801966909423
-0.0025719807927336
0.148053862578
-0.0027903319248811
0.14809797448817
-0.003013375906668
0.14815335984708
-0.0032429090516923
0.14822126787387
-0.0034765365215359
0.1483033629372
-0.0037192424306467
0.14840097358882
-0.0039656769292618
0.14851636493534
-0.0042276721596574
0.14865076885728
-0.0044906761655566
0.14880741086003
-0.0047805900843974
0.14898676951805
-0.0050583941835689
0.14919367663596
-0.0053842697836714
0.14942660975754
-0.005661361008108
0.14969289359737
-0.0060344312336234
0.14998844885177
-0.0062758184081269
-0.0067190892807146
0.15032229570321
0.13969438633695
-5.9934081112115e-05
0.13969029969524
-0.00018153204241661
0.13968367651883
-0.00031482180651112
0.13967488075547
-0.0004632500047357
0.13966420417289
-0.00062446778961763
0.13965201053629
-0.00079521028594624
0.13963882782385
-0.00097309737491582
0.13962534171206
-0.0011568234187845
0.13961234624181
-0.0013456889783666
0.13960070812278
-0.0015394473106408
0.13959133557993
-0.0017378542265411
0.13958518339497
-0.001941039941417
0.1395832428117
-0.0021490203527294
0.13958657792243
-0.0023625407133957
0.13959629431401
-0.0025816971578753
0.1396135972594
-0.0028076348447642
0.13963969037055
-0.0030394689935937
0.13967594420751
-0.0032791628652897
0.13972364952198
-0.0035242418138722
0.13978449950496
-0.0037800923923148
0.13985989457612
-0.0040410719802837
0.13995213610937
-0.0043199136735058
0.14006257593455
-0.0046011159724109
0.14019445025234
-0.0049124643844407
0.14034856142328
-0.0052125053376516
0.14052941815428
-0.0055651264981887
0.14073687075316
-0.0058688135911515
0.14097609866914
-0.0062736591340239
0.14124719502828
-0.0065469147521707
-0.0070263151039484
0.14155442086873
0.13185350796232
-5.833727080711e-05
0.1318482915011
-0.00017631553398534
0.13183971903025
-0.00030624928810774
0.13182807995276
-0.00045161088077574
0.13181359777548
-0.00060998556771275
0.13179658511752
-0.00077819758526207
0.13177753596077
-0.00095404817764759
0.13175711144676
-0.0011363988662566
0.13173608845681
-0.001324665952102
0.13171531646813
-0.0015186752874567
0.13169569035876
-0.0017182280846037
0.13167814750866
-0.0019234970602437
0.13166366715177
-0.0021345399663677
0.13165329335079
-0.0023521668841273
0.13164812233308
-0.002576526113261
0.13164933696178
-0.0028088494475758
0.13165814434431
-0.0030482763515282
0.13167589439624
-0.0032969128936082
0.13170390920573
-0.0035522566010474
0.1317438621796
-0.0038200453448622
0.13179722053243
-0.0040944303131194
0.13186626348936
-0.0043889566114189
0.13195245782754
-0.0046873102928286
0.13205897469479
-0.0050189812347822
0.13218693220904
-0.005340462836064
0.13234034635369
-0.0057185406276384
0.13252053127582
-0.0060489984988642
0.13273060600061
-0.0064837338447332
0.13297446699559
-0.0067907757334244
-0.0073037791999958
0.13325193110742
0.1244527280614
-5.6418943612113e-05
0.12444652472611
-0.00017011214329078
0.12443624668568
-0.00029597119114364
0.12442211016162
-0.00043747430138497
0.12440427322391
-0.00059214857698856
0.12438299726516
-0.00075692157596867
0.12435873695905
-0.00092978782370547
0.12433212043871
-0.0011097823005372
0.12430389861691
-0.0012964440874035
0.12427489182353
-0.0014896684532576
0.12424597039225
-0.0016893066145566
0.12421803877443
-0.0018955654052604
0.12419205171289
-0.0021085528693168
0.12416901209248
-0.002329127229478
0.12414999497648
-0.0025575089644291
0.12413613188809
-0.0027949863274936
0.12412862927404
-0.0030407737071621
0.12412877245119
-0.0032970560416173
0.12413792495085
-0.0035614090730389
0.1241576649632
-0.0038397853308464
0.12418955768699
-0.0041263230121374
0.12423575138523
-0.0044351502862574
0.12429787643496
-0.0047494353207619
0.12437897574572
-0.0051000805250067
0.1244803857085
-0.005441872779722
0.12460588842603
-0.0058440433271073
0.12475717331902
-0.0062002833748879
0.12493689208572
-0.0066634525950856
0.12515060524041
-0.0070044888722918
-0.0075495724004301
0.12539639845872
0.11746734857315
-5.4223676792857e-05
0.11746030082109
-0.00016306432125794
0.11744856211128
-0.00028423240925737
0.11743227289051
-0.0004211850096369
0.11741153313841
-0.0005714087564738
0.11738655918877
-0.00073194756082202
0.11735775981758
-0.00090098839004466
0.11732572258725
-0.0010777450105174
0.11729116511422
-0.0012618865572754
0.11725486871046
-0.0014533719946184
0.11721767027545
-0.0016521081267022
0.11718043005289
-0.0018583251315588
0.1171440685955
-0.0020721913623778
0.11710952895022
-0.0022945875360534
0.11707785345544
-0.0025258334229266
0.11705009217411
-0.0027672250008021
0.11702745194311
-0.0030181334322899
0.11701110320528
-0.0032807072614392
0.11700248629306
-0.0035527921201886
0.11700297421652
-0.003840273215511
0.11701433368651
-0.0041376824453439
0.1170383523631
-0.0044591689281323
0.11707702758124
-0.0047881105062827
0.11713300980671
-0.0051560627198363
0.11720792422469
-0.0055167871689133
0.11730598411969
-0.0059421031950856
0.11742732378353
-0.0063216230133042
0.11757742894411
-0.0068135577316004
0.11775663977592
-0.0071836996811016
-0.0077636944378053
0.11797076183841
0.11087406477862
-5.1803478556898e-05
0.11086632018049
-0.00015531963368435
0.11085336796771
-0.00027128010416922
0.11083526734776
-0.00040308429841813
0.11081206556986
-0.0005482068900372
0.11078394712565
-0.00070382903114214
0.1107512676159
-0.00086830879798518
0.11071457224028
-0.0010410495553059
0.11067453975937
-0.0012218539993427
0.11063190425276
-0.0014107364130168
0.11058746055703
-0.001607664357942
0.11054201715092
-0.001812881653926
0.11049645151454
-0.0020266256561245
0.11045163825747
-0.0022497742104277
0.11040857634357
-0.0024827714421076
0.11036821747184
-0.0027268660635528
0.11033176428093
-0.0029816801777319
0.11030023342173
-0.0032491763403324
0.11027517000269
-0.0035277286416019
0.11025762503938
-0.0038227281949667
0.11024971704343
-0.004129774395105
0.11025252113783
-0.004461972971041
0.11026888534053
-0.0048044746606597
0.11030017082014
-0.0051873481537412
0.11034928622365
-0.0055659025295388
0.1104199778673
-0.0060127947982743
0.11051138957053
-0.0064130346787685
0.11063528371079
-0.0069374518363301
0.11077600689919
-0.0073244228362176
-0.0079471814611541
0.11095949395816
0.1046508875507
-4.9224963164599e-05
0.10464262223445
-0.00014705420783517
0.10462869291999
-0.00025735067793429
0.10460911992195
-0.00038351118995463
0.10458390601081
-0.00052299287112117
0.10455318771469
-0.00067311063025761
0.10451725256474
-0.00083237354605568
0.10447662453787
-0.0010004214289674
0.10443193921523
-0.0011771685792591
0.10438387922003
-0.0013626763221933
0.1043331943454
-0.0015569793891518
0.10428063842651
-0.001760325642357
0.10422703259466
-0.0019730197328898
0.10417317740487
-0.0021959189307833
0.10412000899711
-0.0024296029459353
0.10406838345623
-0.0026752404361175
0.10401948568184
-0.0029327823186597
0.10397419331873
-0.0032038838950217
0.10393413887596
-0.0034876741193139
0.10390002084341
-0.0037886100863906
0.10387435643202
-0.0041041099114308
0.10385723580371
-0.0044448522748088
0.1038529196297
-0.0048001584227957
0.10386006874699
-0.0051944972112175
0.10388548374589
-0.0055913174721197
0.10392685568301
-0.0060541666828597
0.10399051118357
-0.0064766901303515
0.10408511298611
-0.0070320535935675
0.10419552197929
-0.0074348317872407
-0.0081015096039035
0.10434985016745
0.098777012834331
-4.6519415710215e-05
0.098768440818703
-0.00013848206893733
0.098753722642163
-0.00024263237669622
0.098732940704766
-0.00036272912916423
0.098706172209078
-0.00049622425438091
0.098673457025279
-0.00064039532770575
0.098634882558218
-0.00079379896240108
0.098591047606149
-0.00095658636186297
0.09854252815208
-0.0011286490115285
0.09848995325808
-0.0013101013154118
0.098434025369173
-0.0015010513884592
0.098375449515701
-0.0017017496778261
0.098314986088501
-0.0019125561957513
0.098253364551881
-0.0021342972852152
0.098191425196074
-0.002367663482746
0.098129926031887
-0.0026137411660813
0.098069977523435
-0.0028728337066762
0.098012372014992
-0.0031462782855778
0.097958724560955
-0.0034340265679756
0.097909548505171
-0.0037394339375465
0.097867497948872
-0.0040620592676015
0.09783200062207
-0.0044093548661485
0.097808324229689
-0.004776481954629
0.097792546002966
-0.0051787189139598
0.097796512542896
-0.0055952839465791
0.097807056359418
-0.0060647104386815
0.097849823146761
-0.0065194568620808
0.097893165087398
-0.0070753954828876
0.097979655328108
-0.0075213219791891
0.098147496049793
-0.0082693502746411
0.39697586192981
0.0045853994620988
0.3925471428843
0.0044287190635453
0.38827937121252
0.0042677716887205
0.38417671602837
0.0041026552005707
0.38024324207581
0.0039334739683116
0.37648292339883
0.0037603186925643
0.37289961843391
0.0035833049800958
0.36949702810023
0.0034025903489537
0.36627866086992
0.0032183672454174
0.36324781774388
0.0030308431415399
0.36040759936604
0.0028402183934122
0.35776093817059
0.0026466612117142
0.35531065124911
0.0024502869380894
0.35305950629496
0.0022511449717853
0.35101028289078
0.0020492234224492
0.34916581327834
0.0018444696320553
0.34752898645172
0.0016368268471576
0.34610271024629
0.0014262762276588
0.34488983203913
0.0012128782305743
0.34389303041646
0.00099680164809329
0.34311469168583
0.00077833875749401
0.34255678986454
0.00055790185041795
0.34222077559456
0.00033601430076185
0.34210742437964
0.00011335124816362
0.34221737110721
-0.0001099466925791
0.34255056386956
-0.00033319272479312
0.34310610271486
-0.00055553880601394
0.34388281165552
-0.00077670889887656
0.34487917007203
-0.00099635837316225
0.34609336829285
-0.0012141981752295
0.3475233809982
-0.001430012658546