/*--------------------------------*- C++ -*----------------------------------*\
| =========                 |                                                 |
| \\      /  F ield         | OpenFOAM: The Open Source CFD Toolbox           |
|  \\    /   O peration     | Version:  2112                                  |
|   \\  /    A nd           | Website:  www.openfoam.com                      |
|    \\/     M anipulation  |                                                 |
\*---------------------------------------------------------------------------*/
FoamFile
{
    version     2.0;
    format      ascii;
    arch        "LSB;label=32;scalar=64";
    class       volVectorField;
    location    "5";
    object      U;
}
// * * * * * * * * * * * * * * * * * * * * * * * * * * * * * * * * * * * * * //

dimensions      [0 1 -1 0 0 0 0];

internalField   nonuniform List<vector> 
22000
(
(1.0000013412111 -3.7372291057193e-05 0)
(1.0000390359757 -0.00011470734401085 0)
(1.0001130621214 -0.00019594324763161 0)
(1.0002271982693 -0.00028219482563154 0)
(1.0003848413253 -0.00037266488562488 0)
(1.000587766463 -0.00046527386520411 0)
(1.0008361556037 -0.00055786480987183 0)
(1.0011292748903 -0.00064885842897657 0)
(1.0014659808637 -0.00073728574005172 0)
(1.0018449253346 -0.00082262089103226 0)
(1.0022645883008 -0.00090455363367766 0)
(1.0027233318505 -0.00098294693168648 0)
(1.0032194166837 -0.001057714594474 0)
(1.0037511192148 -0.0011289289504134 0)
(1.0043166954367 -0.0011965925727449 0)
(1.0049145237 -0.0012608774871912 0)
(1.0055428877774 -0.0013216637807211 0)
(1.0062002654964 -0.0013792139874062 0)
(1.0068848503559 -0.0014332034796921 0)
(1.0075953168469 -0.0014843788770079 0)
(1.0083297756922 -0.0015320776875176 0)
(1.0090875038886 -0.0015781337304838 0)
(1.0098664772192 -0.0016205536644016 0)
(1.0106670406571 -0.0016631971593704 0)
(1.0114863404581 -0.0017003397484098 0)
(1.0123262278095 -0.0017407506193684 0)
(1.0131814986694 -0.001770104934413 0)
(1.0140566185134 -0.0018097471928862 0)
(1.0149418752306 -0.0018252613239617 0)
(1.0158468577002 -0.0018686592565789 0)
(1.0000005292955 -0.00010941469238249 0)
(1.0000374488782 -0.00033605856864777 0)
(1.000110510337 -0.00057449190485449 0)
(1.0002236075904 -0.0008280199294866 0)
(1.000380288675 -0.0010942866578997 0)
(1.0005824625019 -0.0013671443096769 0)
(1.0008304406714 -0.0016402172796762 0)
(1.0011235977598 -0.0019088348609957 0)
(1.0014608561244 -0.0021701259110917 0)
(1.0018409370297 -0.0024225226205937 0)
(1.0022623670388 -0.0026650885133681 0)
(1.0027235918853 -0.002897394000106 0)
(1.0032228994138 -0.0031191666664055 0)
(1.0037586764385 -0.0033306088002621 0)
(1.004329159262 -0.0035317242498518 0)
(1.0049329048949 -0.0037229993129332 0)
(1.005568060065 -0.0039040637529277 0)
(1.0062334374259 -0.0040756550868105 0)
(1.0069268192024 -0.0042368301183413 0)
(1.0076476118369 -0.0043897525675702 0)
(1.0083928952319 -0.0045325390094958 0)
(1.0091636322809 -0.0046705155631962 0)
(1.009955349317 -0.0047980205277209 0)
(1.0107722637926 -0.0049262015127224 0)
(1.0116058699881 -0.0050386903264154 0)
(1.0124666790451 -0.0051605041237553 0)
(1.0133368795595 -0.0052506589018652 0)
(1.0142396387297 -0.0053698872902362 0)
(1.0151385540231 -0.005420125804459 0)
(1.0160823827443 -0.0055492889889781 0)
(1.0000005654978 -0.00017703885400043 0)
(1.0000378956558 -0.00054394920745521 0)
(1.0001116671894 -0.00093055475107335 0)
(1.0002256783355 -0.0013422940969472 0)
(1.0003834220465 -0.001775275708164 0)
(1.0005868766878 -0.0022194660925387 0)
(1.0008364937081 -0.0026645029984853 0)
(1.0011318084468 -0.0031028107469831 0)
(1.0014718736836 -0.0035297286102919 0)
(1.0018555573318 -0.00394270256222 0)
(1.0022814955078 -0.0043401858930739 0)
(1.0027483044014 -0.0047214576218103 0)
(1.0032543515821 -0.0050860457014227 0)
(1.0037982429447 -0.0054342781150548 0)
(1.0043782131042 -0.0057661339078497 0)
(1.0049931546225 -0.0060824061180763 0)
(1.0056410145975 -0.0063824160774525 0)
(1.0063212199034 -0.00666738255214 0)
(1.0070308792976 -0.0069356495635883 0)
(1.0077706995834 -0.0071908741860088 0)
(1.0085359869778 -0.007429767338235 0)
(1.009330672037 -0.0076613796354902 0)
(1.0101459558345 -0.0078759674137201 0)
(1.010992900761 -0.0080925723523396 0)
(1.0118528437429 -0.0082832136024509 0)
(1.0127518036729 -0.008490589229424 0)
(1.0136490452333 -0.0086447689948048 0)
(1.014601776256 -0.0088492093534856 0)
(1.0155243338684 -0.0089369799638382 0)
(1.0165381172709 -0.0091595938895648 0)
(1.0000005853457 -0.00024115958773902 0)
(1.000037972162 -0.00074087947902904 0)
(1.000111887544 -0.0012680863638774 0)
(1.0002262352756 -0.0018302987020676 0)
(1.000384587254 -0.0024220890478979 0)
(1.0005890186912 -0.0030297540659946 0)
(1.0008401066152 -0.003639238942486 0)
(1.0011375590447 -0.0042403070879335 0)
(1.0014805947579 -0.0048266634342108 0)
(1.0018682899562 -0.0053948579735853 0)
(1.0022994384726 -0.0059427769146452 0)
(1.0027729011445 -0.0064694370297134 0)
(1.0032871597188 -0.0069741680399651 0)
(1.0038411383194 -0.0074574355790481 0)
(1.004433073165 -0.0079191638447181 0)
(1.0050623482087 -0.0083604661297546 0)
(1.0057266306954 -0.0087802842701967 0)
(1.006426246242 -0.0091803652590971 0)
(1.0071573442581 -0.009558192074382 0)
(1.0079225256066 -0.0099190609064123 0)
(1.0087145594101 -0.010257948816494 0)
(1.0095416716776 -0.010588020693373 0)
(1.0103888591665 -0.010894707894886 0)
(1.0112770433413 -0.011205942785021 0)
(1.0121729937497 -0.011480459296965 0)
(1.0131249841198 -0.011781052799327 0)
(1.0140595281291 -0.012005004795346 0)
(1.0150824932223 -0.012304106962808 0)
(1.0160381579394 -0.012433826448676 0)
(1.0171511017862 -0.012762015299604 0)
(1.0000006064479 -0.00030160075661382 0)
(1.0000377977911 -0.00092636070477118 0)
(1.0001113946591 -0.0015863711546955 0)
(1.0002254462836 -0.0022911757528626 0)
(1.0003836337493 -0.0030338241628623 0)
(1.000588155344 -0.0037971845906229 0)
(1.0008397426119 -0.0045638253071265 0)
(1.0011383224662 -0.0053211050681495 0)
(1.0014833320486 -0.0060612535743991 0)
(1.0018741268922 -0.0067800163285239 0)
(1.0023097163864 -0.0074747524592008 0)
(1.0027892908826 -0.0081442444148709 0)
(1.003311490452 -0.0087876190665885 0)
(1.0038756663047 -0.0094054960971446 0)
(1.0044800676633 -0.0099977080225383 0)
(1.0051247353354 -0.010565711679444 0)
(1.0058069864241 -0.011107973235317 0)
(1.006528337105 -0.011626830631292 0)
(1.0072837090401 -0.012118708205626 0)
(1.008078188309 -0.012590753614187 0)
(1.0089012780028 -0.013035797955293 0)
(1.009766796771 -0.013471688864046 0)
(1.0106517483677 -0.013878074405028 0)
(1.0115898098254 -0.01429315914838 0)
(1.0125290303341 -0.014660157483985 0)
(1.0135463085507 -0.015065228308845 0)
(1.0145262444097 -0.015367704028007 0)
(1.0156368555415 -0.015775268235456 0)
(1.0166332788602 -0.015954108584261 0)
(1.0178707904823 -0.016405494839412 0)
(1.0000006292605 -0.00035813754923768 0)
(1.0000373007214 -0.0010996929497666 0)
(1.0001099422952 -0.0018843033644114 0)
(1.0002227603498 -0.0027235041853531 0)
(1.0003795498092 -0.0036088212179983 0)
(1.0005826511281 -0.004519929626998 0)
(1.0008329869258 -0.0054363446364442 0)
(1.001130756937 -0.0063432893489094 0)
(1.001475672045 -0.0072316876335371 0)
(1.0018674376978 -0.0080965785656244 0)
(1.0023053379501 -0.0089348394384529 0)
(1.002788980094 -0.0097450502821512 0)
(1.0033172128777 -0.010526135295636 0)
(1.0038899291541 -0.011278892566166 0)
(1.0045054112103 -0.012003028820129 0)
(1.0051645274588 -0.01270038291269 0)
(1.0058641863929 -0.013368837423784 0)
(1.0066073891147 -0.014011413082923 0)
(1.0073875824099 -0.014623242183473 0)
(1.0082129187288 -0.015213598700464 0)
(1.009068950002 -0.015772679152657 0)
(1.0099763416189 -0.01632371329394 0)
(1.0109024206978 -0.016839426325962 0)
(1.0118963806852 -0.017369964964339 0)
(1.0128836637309 -0.017840341960817 0)
(1.0139757464351 -0.018364001966528 0)
(1.0150068786268 -0.018756155740438 0)
(1.0162195737937 -0.019289383915709 0)
(1.0172627095929 -0.019526744600433 0)
(1.0186467131939 -0.020123057631873 0)
(1.0000006508342 -0.00041049532561783 0)
(1.00003637265 -0.0012600126701078 0)
(1.000107205918 -0.0021604261891681 0)
(1.0002175193958 -0.0031252341217816 0)
(1.0003712247466 -0.0041444413567833 0)
(1.0005708150153 -0.0051947805526293 0)
(1.0008174291487 -0.0062530588234542 0)
(1.0011115890299 -0.0073026531381238 0)
(1.0014533317865 -0.0083333670660026 0)
(1.001842782939 -0.0093396425843423 0)
(1.0022795588124 -0.010317928218253 0)
(1.0027637726176 -0.011266641250249 0)
(1.0032945335362 -0.012184510969117 0)
(1.0038723930348 -0.013072547674199 0)
(1.0044956913871 -0.01393030227569 0)
(1.0051662986334 -0.014760047589463 0)
(1.0058806687387 -0.015558970542978 0)
(1.0066435859854 -0.016330893989342 0)
(1.0074468023927 -0.017069401215386 0)
(1.0083021149086 -0.017786219598359 0)
(1.0091904947741 -0.018468370616662 0)
(1.0101406699814 -0.019145271799116 0)
(1.0111087286525 -0.019781455032732 0)
(1.0121619836284 -0.020440902254291 0)
(1.0131996977217 -0.021027397033166 0)
(1.0143733898261 -0.02168610410264 0)
(1.015459377091 -0.022181181103663 0)
(1.0167856543239 -0.022860188325703 0)
(1.0178799879066 -0.023167636343084 0)
(1.0194287991793 -0.023934114082699 0)
(1.0000006688026 -0.00045834477008506 0)
(1.0000349206998 -0.0014062881440842 0)
(1.0001029169606 -0.0024129696535149 0)
(1.0002091725292 -0.0034938176772798 0)
(1.0003577068169 -0.0046373292345112 0)
(1.0005511709569 -0.0058175677078099 0)
(1.0007909391496 -0.0070090006787626 0)
(1.0010778964227 -0.0081934675353192 0)
(1.0014124561011 -0.009359851455597 0)
(1.0017952314993 -0.010502118519736 0)
(1.0022262292132 -0.01161635057178 0)
(1.0027061517013 -0.01270085105129 0)
(1.0032344239847 -0.013754168825968 0)
(1.0038123700041 -0.014777570126644 0)
(1.0044384231311 -0.015770427619509 0)
(1.0051156249616 -0.01673551417028 0)
(1.0058399432611 -0.017669213637998 0)
(1.0066182313262 -0.018576293702563 0)
(1.0074403561971 -0.019448529294186 0)
(1.0083223020114 -0.020300463345096 0)
(1.0092399023259 -0.021115391249004 0)
(1.0102310751467 -0.021929773278272 0)
(1.0112392661065 -0.022698619964515 0)
(1.0123523014779 -0.023501785445291 0)
(1.0134401006814 -0.02421858068624 0)
(1.0146990964285 -0.025030683161315 0)
(1.0158411730544 -0.025643776794802 0)
(1.0172891487115 -0.026491145124349 0)
(1.018437551314 -0.026882484828938 0)
(1.0201653705862 -0.027847358504357 0)
(1.000000682388 -0.00050133747427928 0)
(1.0000328759502 -0.0015374292903018 0)
(1.0000968680952 -0.0026400450279672 0)
(1.0001972880634 -0.0038265062755015 0)
(1.0003382383912 -0.0050838272516696 0)
(1.0005225254964 -0.0063836963755358 0)
(1.0007517749812 -0.0076986301268189 0)
(1.0010272676879 -0.0090092524926282 0)
(1.0013498376641 -0.010303737633601 0)
(1.0017206421868 -0.011575704659245 0)
(1.0021401399666 -0.012820944282225 0)
(1.0026096927381 -0.014037698347238 0)
(1.0031291069899 -0.015224371481385 0)
(1.0037005641587 -0.016382523736301 0)
(1.004322648811 -0.01751136190791 0)
(1.0049997039563 -0.018614207598414 0)
(1.0057272269781 -0.01968657977615 0)
(1.0065143670907 -0.020734318525694 0)
(1.0073490099245 -0.021747180822042 0)
(1.0082517553436 -0.022742858706673 0)
(1.0091929430926 -0.023700465618677 0)
(1.0102205428831 -0.024664227653848 0)
(1.0112643735007 -0.025578525260571 0)
(1.0124346250912 -0.026540925850932 0)
(1.0135694659398 -0.0274031773914 0)
(1.0149141289367 -0.028388264228745 0)
(1.0161109867745 -0.029135848187206 0)
(1.0176849378019 -0.030175921792904 0)
(1.0188885691746 -0.030667008556011 0)
(1.0208049717692 -0.031860621125737 0)
(1.0000006901704 -0.00053914517882952 0)
(1.0000301915764 -0.0016524110869108 0)
(1.0000889202312 -0.0028398561206282 0)
(1.000181572648 -0.0041206503411496 0)
(1.0003122950661 -0.0054803644757116 0)
(1.0004840359286 -0.0068886260889974 0)
(1.0006986820729 -0.0083164047724535 0)
(1.0009579357881 -0.0097434421041196 0)
(1.0012630883386 -0.011157421368054 0)
(1.0016158838887 -0.012551748965751 0)
(1.0020172892677 -0.013922008978369 0)
(1.00246937394 -0.015266436820391 0)
(1.0029724053463 -0.01658335130027 0)
(1.0035294684256 -0.01787463283472 0)
(1.0041394094666 -0.019139384593031 0)
(1.0048079003922 -0.020381478200277 0)
(1.0055301314564 -0.021595605854714 0)
(1.0063175379347 -0.022788714111034 0)
(1.0071562865279 -0.023948503192233 0)
(1.008071460627 -0.025095959619584 0)
(1.0090284205219 -0.026205908316093 0)
(1.0100847202973 -0.027330541603935 0)
(1.0111575603097 -0.028403425768743 0)
(1.0123785703173 -0.029540320810028 0)
(1.0135553976664 -0.030564205337139 0)
(1.0149817287114 -0.031742114498747 0)
(1.0162297728496 -0.032641847526979 0)
(1.0179297049706 -0.03390035589008 0)
(1.0191874403616 -0.034509007471894 0)
(1.021295964158 -0.035962408241062 0)
(1.0000006915964 -0.0005714912256754 0)
(1.0000268458149 -0.001750371734577 0)
(1.0000790050257 -0.0030108728423715 0)
(1.0001618770708 -0.0043739562683426 0)
(1.0002796009489 -0.0058238016782532 0)
(1.0004352418197 -0.0073283048909458 0)
(1.0006309473664 -0.0088573027950752 0)
(1.0008688571305 -0.010389994259593 0)
(1.0011507457115 -0.011913792337037 0)
(1.0014789732665 -0.013422030263643 0)
(1.0018550627956 -0.014910170612254 0)
(1.0022818189362 -0.01637650882909 0)
(1.0027600554594 -0.017819335345255 0)
(1.0032937493326 -0.0192408953138 0)
(1.0038821951772 -0.020640257960908 0)
(1.0045322483737 -0.02202185458775 0)
(1.005239231516 -0.02337964552514 0)
(1.0060163452589 -0.024721639978366 0)
(1.0068491204742 -0.026033662247283 0)
(1.0077656467562 -0.027339803748638 0)
(1.0087289627156 -0.028611170799557 0)
(1.0098023508885 -0.029906934305396 0)
(1.0108967140828 -0.031151945029227 0)
(1.0121560524155 -0.032476530786467 0)
(1.0133708163895 -0.033680777821573 0)
(1.0148658591811 -0.035067551877435 0)
(1.016164272666 -0.036141802568113 0)
(1.0179811973685 -0.037642351592511 0)
(1.0192906805386 -0.038386493303084 0)
(1.0215929537111 -0.040133640383849 0)
(1.0000006857926 -0.00059817507995101 0)
(1.0000228415854 -0.0018306882461501 0)
(1.0000671302483 -0.0031519637307751 0)
(1.0001382048776 -0.0045846839546086 0)
(1.0002401383846 -0.0061117011198057 0)
(1.0003760779834 -0.0076995167893196 0)
(1.0005484210802 -0.0093172509998754 0)
(1.0007597480319 -0.0109438986143 0)
(1.001012329547 -0.012566822546419 0)
(1.0013091571984 -0.014179423729218 0)
(1.001652338597 -0.015777128909819 0)
(1.0020454319268 -0.017358369220928 0)
(1.0024898512867 -0.018921459331675 0)
(1.0029904666099 -0.020469078694993 0)
(1.0035471301657 -0.022000309111724 0)
(1.0041678276189 -0.023520210897064 0)
(1.004848243832 -0.025022060843427 0)
(1.0056031765274 -0.026514992273827 0)
(1.0064179206194 -0.027983023852597 0)
(1.0073232841684 -0.029453446180127 0)
(1.0082805324598 -0.030893674036884 0)
(1.0093583386446 -0.032370099733429 0)
(1.0104620364676 -0.033798691991526 0)
(1.0117471562896 -0.035324574763226 0)
(1.0129894210626 -0.036725421328297 0)
(1.0145396208518 -0.038337666282618 0)
(1.0158837880483 -0.039610078222851 0)
(1.0177998233679 -0.041369329661188 0)
(1.0191652702417 -0.042277796408336 0)
(1.0216485249202 -0.04435119667801 0)
(1.0000006725627 -0.00061908816103161 0)
(1.0000182063699 -0.0018930261445759 0)
(1.0000533743279 -0.0032624858642044 0)
(1.000110704168 -0.0047517837350546 0)
(1.0001941376305 -0.0063425165520287 0)
(1.0003068611927 -0.0080001305616086 0)
(1.0004515002398 -0.0096934378631079 0)
(1.0006310667651 -0.011401559067426 0)
(1.0008483250095 -0.01311202149021 0)
(1.0011068987743 -0.014818431019693 0)
(1.0014094869161 -0.01651626476523 0)
(1.0017604089873 -0.01820416570874 0)
(1.0021616977458 -0.019880528251798 0)
(1.0026191289161 -0.021548540720308 0)
(1.003133147294 -0.023207346407961 0)
(1.0037128840428 -0.024862717715018 0)
(1.0043544463518 -0.026507304816616 0)
(1.0050742596184 -0.028151447315949 0)
(1.0058574643365 -0.029777472990365 0)
(1.0067376668725 -0.031415927909784 0)
(1.0076743966516 -0.033030716489412 0)
(1.0087419984214 -0.034695521287133 0)
(1.0098400192475 -0.036317488169946 0)
(1.0111362751392 -0.038056888990098 0)
(1.0123911489635 -0.039668443198502 0)
(1.0139820737519 -0.041523479746901 0)
(1.0153595713999 -0.043012993420831 0)
(1.0173575574945 -0.045051378749661 0)
(1.0187774555048 -0.046154751202527 0)
(1.0214187634615 -0.048576315382568 0)
(1.0000006521319 -0.00063422283391829 0)
(1.0000129886209 -0.0019373708018252 0)
(1.0000378800714 -0.0033423349628377 0)
(1.0000796555624 -0.0048749711426832 0)
(1.0001420566969 -0.0065157004734927 0)
(1.0002282599222 -0.0082292461141471 0)
(1.0003410868692 -0.0099845048738434 0)
(1.0004839592073 -0.011761036282408 0)
(1.0006601177506 -0.013546735257319 0)
(1.0008738031094 -0.015335541696061 0)
(1.0011282938151 -0.017123066789032 0)
(1.0014286592835 -0.018908237600065 0)
(1.0017775464362 -0.020689588001925 0)
(1.0021816302115 -0.022470884404388 0)
(1.0026419518352 -0.024251394495403 0)
(1.0031687903133 -0.02603767634012 0)
(1.0037586901753 -0.027821841849364 0)
(1.0044297282404 -0.029615509345406 0)
(1.0051669297923 -0.031399467627917 0)
(1.0060067477875 -0.033207599555145 0)
(1.0069070868286 -0.035000444531801 0)
(1.0079479019047 -0.036859241487582 0)
(1.009023454409 -0.038681942514742 0)
(1.010313088672 -0.040645463391815 0)
(1.0115637614197 -0.042478621400695 0)
(1.0131767289191 -0.044593826225727 0)
(1.0145716935955 -0.046314344927966 0)
(1.0166329945389 -0.048656170526424 0)
(1.0180942361036 -0.04997570560248 0)
(1.0208706594237 -0.052767835427203 0)
(1.0000006238964 -0.0006436721602094 0)
(1.0000072601852 -0.0019640134089469 0)
(1.000020844635 -0.0033919658318124 0)
(1.000045449864 -0.004954763392738 0)
(1.0000845411449 -0.006631750383667 0)
(1.000141236122 -0.008387252928374 0)
(1.0002185120753 -0.010190625068901 0)
(1.0003201646585 -0.012022155638285 0)
(1.0004498796519 -0.013870293108735 0)
(1.000612482732 -0.015729428065471 0)
(1.0008118032522 -0.017595382583023 0)
(1.0010536288571 -0.019467433769414 0)
(1.0013411950649 -0.021344313526455 0)
(1.0016820456504 -0.023230429231862 0)
(1.0020777996012 -0.025125240763097 0)
(1.0025398542927 -0.027036158490061 0)
(1.003065194993 -0.028954860844391 0)
(1.0036735069986 -0.030894321825713 0)
(1.0043497891703 -0.032833935765927 0)
(1.0051331829626 -0.034811100272634 0)
(1.005980376478 -0.036782930796756 0)
(1.006976285604 -0.038838974541849 0)
(1.008011183331 -0.040866845788256 0)
(1.0092740957809 -0.043062662120823 0)
(1.0105014348153 -0.045125703409818 0)
(1.0121150285301 -0.047514987959462 0)
(1.0135076548838 -0.049479562152733 0)
(1.0156110260789 -0.052145277887877 0)
(1.0170943583518 -0.053698496359366 0)
(1.0199795962232 -0.056884422977437 0)
(1.0000005871379 -0.00064763005528685 0)
(1.0000011007396 -0.0019735612407195 0)
(1.0000025389489 -0.0034122889682338 0)
(1.0000085885591 -0.0049923877486521 0)
(1.0000224107594 -0.0066921499783774 0)
(1.0000470043947 -0.0084758001822358 0)
(1.000085459251 -0.010313492643669 0)
(1.0001419017133 -0.012186512650584 0)
(1.0002204183403 -0.014084032021189 0)
(1.0003263716438 -0.01600099587507 0)
(1.0004640968602 -0.017933505170327 0)
(1.000640048276 -0.01988124397167 0)
(1.0008580065966 -0.021843195602349 0)
(1.0011263274963 -0.02382446175378 0)
(1.0014471733333 -0.025824759665401 0)
(1.0018329868434 -0.027852416085324 0)
(1.0022812023152 -0.029898771837842 0)
(1.0028129773028 -0.03197827215489 0)
(1.0034134458991 -0.034068990466689 0)
(1.0041240873021 -0.036212160746168 0)
(1.0049009240935 -0.038361236245168 0)
(1.0058330082611 -0.040614966780043 0)
(1.0068078251737 -0.042849694716407 0)
(1.0080226495184 -0.045282364611911 0)
(1.0092051904441 -0.047581301268692 0)
(1.0107958508316 -0.050254243014308 0)
(1.0121635710537 -0.05247348289835 0)
(1.014283052605 -0.055480442309892 0)
(1.0157678059209 -0.057281797322865 0)
(1.0187282354355 -0.060880774895583 0)
(1.0000005468719 -0.00064636181648722 0)
(0.99999459199848 -0.0019668934347148 0)
(0.99998318640217 -0.0034048089570794 0)
(0.9999696005882 -0.004989806826746 0)
(0.99995657402884 -0.0066992841013343 0)
(0.9999469453279 -0.0084976505488191 0)
(0.99994387070659 -0.010356162010957 0)
(0.99995175226892 -0.012257323230504 0)
(0.99997502573064 -0.014191168809449 0)
(1.0000195310329 -0.016153282487311 0)
(1.000090053768 -0.018140100611836 0)
(1.0001936447321 -0.02015176126459 0)
(1.0003345736758 -0.022187544278699 0)
(1.0005219226916 -0.024253291874242 0)
(1.0007583549984 -0.02634903139497 0)
(1.0010572377435 -0.028484076221995 0)
(1.0014164697705 -0.03064949673998 0)
(1.0018584697353 -0.03286136383212 0)
(1.0023686801809 -0.035096455920186 0)
(1.0029905163368 -0.037400176690815 0)
(1.003679780497 -0.039722177120203 0)
(1.0045289902044 -0.042170953638657 0)
(1.0054236236123 -0.044611377985291 0)
(1.0065681817147 -0.047281719337517 0)
(1.0076832446445 -0.049819417335984 0)
(1.0092250482843 -0.052781491792694 0)
(1.0105444066633 -0.055262715524383 0)
(1.0126474642166 -0.058623339944869 0)
(1.0141161591007 -0.06068771927241 0)
(1.0171031590933 -0.064706838453765 0)
(1.0000004989565 -0.00064022312587427 0)
(0.99998784851176 -0.0019450828976825 0)
(0.99996309631862 -0.0033712991395534 0)
(0.99992903581127 -0.0049495579440898 0)
(0.99988796354321 -0.0066563944224193 0)
(0.99984249411111 -0.0084566535441026 0)
(0.99979579190444 -0.010322976434729 0)
(0.99975247256514 -0.012239294015314 0)
(0.99971726108712 -0.014196627992385 0)
(0.9996964021496 -0.016191265524596 0)
(0.9996950674405 -0.01822001980184 0)
(0.99972081845036 -0.020283512427949 0)
(0.99977834630794 -0.02238135232821 0)
(0.99987735266083 -0.024520154073204 0)
(1.0000209440978 -0.026700296801521 0)
(1.0002232683892 -0.028932138830341 0)
(1.0004826758241 -0.031206549637715 0)
(1.0008226325806 -0.033541343737809 0)
(1.0012289787076 -0.035912104801428 0)
(1.001746733631 -0.038368563900018 0)
(1.002331732556 -0.040856711455895 0)
(1.0030794082956 -0.043494885213518 0)
(1.0038738701178 -0.046136838298469 0)
(1.0049255580357 -0.049041992339466 0)
(1.0059502505696 -0.051817944564197 0)
(1.0074153602272 -0.055069692266892 0)
(1.008663016337 -0.057818744619229 0)
(1.0107123640774 -0.061533837368658 0)
(1.0121482602211 -0.063887272943968 0)
(1.0151075170886 -0.068314108036362 0)
(1.0000004455687 -0.00062961600279211 0)
(0.99998095386722 -0.0019094229662557 0)
(0.99994255942428 -0.0033139133256217 0)
(0.99988750524143 -0.0048746092706812 0)
(0.99981758818995 -0.006567272537607 0)
(0.99973515742667 -0.00835740427907 0)
(0.99964334321706 -0.010219256773012 0)
(0.99954690844701 -0.012138344062252 0)
(0.99945080326921 -0.014106776182998 0)
(0.99936159412161 -0.016121589892389 0)
(0.99928477078555 -0.018180013558189 0)
(0.99922830613602 -0.020283164193578 0)
(0.99919723964427 -0.022431010115286 0)
(0.99920176540498 -0.024630943359852 0)
(0.99924536355593 -0.026883737222978 0)
(0.99934279669969 -0.029200812592654 0)
(0.9994928262023 -0.03157293372846 0)
(0.99971974721952 -0.034019698281428 0)
(1.0000098308602 -0.036515689176214 0)
(1.0004093777425 -0.039114953976668 0)
(1.0008744717459 -0.041760158427387 0)
(1.0015027768558 -0.044579293924326 0)
(1.0021779626392 -0.04741567932999 0)
(1.0031141946791 -0.050549112266219 0)
(1.0040264885549 -0.053559685841563 0)
(1.0053852493162 -0.057095612657056 0)
(1.0065389261453 -0.06011858274162 0)
(1.0084940349768 -0.064175358501947 0)
(1.0098792401619 -0.066848932412764 0)
(1.0127564041241 -0.071664066623862 0)
(1.0000003879115 -0.00061497942170813 0)
(0.99997400111973 -0.0018612957989277 0)
(0.99992184122618 -0.0032350026275178 0)
(0.99984554852438 -0.0047682976016941 0)
(0.99974638369641 -0.0064362366606011 0)
(0.99962638484282 -0.0082051658082286 0)
(0.99948860158882 -0.010051142304829 0)
(0.99933787035589 -0.011961382112272 0)
(0.99917930673231 -0.013929165774655 0)
(0.99901970559377 -0.015952295172463 0)
(0.99886481310615 -0.018028449820995 0)
(0.99872289401521 -0.020159222474123 0)
(0.99859927847617 -0.022344983499273 0)
(0.998504492064 -0.02459386350764 0)
(0.99844234476783 -0.026907107830861 0)
(0.99842799095245 -0.029297143702087 0)
(0.99846059978191 -0.031754808214188 0)
(0.99856499414996 -0.034301375951956 0)
(0.99872796275459 -0.036910779841148 0)
(0.99899663685145 -0.039641112887485 0)
(0.99932768176001 -0.042432308611627 0)
(0.99982003323466 -0.04542146018017 0)
(1.0003582677885 -0.04844255863436 0)
(1.0011572443699 -0.051794271234035 0)
(1.001936420213 -0.055033054428569 0)
(1.003159266086 -0.058841597199137 0)
(1.0041962771722 -0.062142988095541 0)
(1.0060169433889 -0.0665206282989 0)
(1.0073293868481 -0.069538285532727 0)
(1.0100729107182 -0.074719403188754 0)
(1.0000003247578 -0.00059677003758551 0)
(0.99996706357958 -0.0018021415471472 0)
(0.99990117252551 -0.003137012123879 0)
(0.99980364665618 -0.004634095455939 0)
(0.9996751876703 -0.0062678187923171 0)
(0.99951748623342 -0.008005539076632 0)
(0.99933347576714 -0.0098252658872716 0)
(0.99912797752322 -0.011715988000155 0)
(0.99890622146914 -0.013672223686769 0)
(0.99867512100864 -0.015692521750249 0)
(0.99844064281402 -0.017775055779731 0)
(0.99821118242898 -0.01992182852668 0)
(0.99799234985517 -0.02213367712973 0)
(0.99779475211984 -0.024419343511843 0)
(0.99762258303465 -0.026780690113421 0)
(0.99749100173859 -0.029230946488836 0)
(0.99739979098746 -0.03176139466724 0)
(0.99737371689604 -0.03439459830835 0)
(0.99740053820558 -0.037104581493764 0)
(0.99752728731961 -0.039952658946598 0)
(0.99771205400224 -0.042877268828223 0)
(0.99805346175735 -0.046023217787581 0)
(0.99843879245606 -0.049217128596636 0)
(0.99908048369428 -0.052774205298494 0)
(0.99970688628542 -0.056231877383797 0)
(1.0007670837411 -0.06029829147224 0)
(1.0016645054005 -0.063876792047022 0)
(1.0033126705621 -0.068553015359122 0)
(1.0045270591518 -0.071924982437217 0)
(1.007086469709 -0.07744304092876 0)
(1.0000002513632 -0.00057546305868619 0)
(0.99996021246939 -0.0017334339044636 0)
(0.9998807730147 -0.0030224039513777 0)
(0.99976223832775 -0.004475458044865 0)
(0.9996047305464 -0.006066492577576 0)
(0.99940958734786 -0.0077640400474555 0)
(0.99917962168874 -0.0095481806905084 0)
(0.99891952952328 -0.011409726293704 0)
(0.99863461299901 -0.013344483937083 0)
(0.9983317695079 -0.015351690906104 0)
(0.99801718960839 -0.017430064614062 0)
(0.99769918987168 -0.01958191144692 0)
(0.99738374841872 -0.02180863822854 0)
(0.99708117106972 -0.024119374877686 0)
(0.9967962817823 -0.026516837839467 0)
(0.99654351562973 -0.029014621677441 0)
(0.99632392244019 -0.031605089805282 0)
(0.99616092128066 -0.03431117314678 0)
(0.99604469533559 -0.03710842820027 0)
(0.99601987867171 -0.040059423453054 0)
(0.9960486279693 -0.043103877795217 0)
(0.99622546076225 -0.046390837996452 0)
(0.99644433591122 -0.049743900046312 0)
(0.99691045776123 -0.053490487408636 0)
(0.99736547377666 -0.057153501725174 0)
(0.99824007065873 -0.061464647173113 0)
(0.998976126029 -0.065306600543941 0)
(1.0004196062899 -0.070272559254077 0)
(1.0015130715836 -0.073984431500154 0)
(1.0038356791071 -0.07981148055411 0)
(1.000000160686 -0.00055160725797411 0)
(0.9999535974106 -0.0016568599748995 0)
(0.99986101273714 -0.0028938715888264 0)
(0.99972194779148 -0.0042960268847625 0)
(0.99953591339517 -0.0058368537051731 0)
(0.99930391794281 -0.0074861054863438 0)
(0.99902866495645 -0.0092259787965137 0)
(0.99871461997697 -0.01104928634327 0)
(0.99836715302029 -0.012953191270719 0)
(0.99799301414271 -0.014937539531488 0)
(0.99759862310453 -0.017001645724105 0)
(0.99719197676525 -0.019147990191906 0)
(0.99677956218898 -0.021378647951658 0)
(0.9963709320551 -0.023702857552436 0)
(0.99597198022975 -0.026124524328742 0)
(0.99559543242003 -0.028657064016293 0)
(0.99524477826982 -0.031294896959577 0)
(0.99493993815306 -0.034059844010521 0)
(0.994676391957 -0.036931305627383 0)
(0.99449168918509 -0.039969325553759 0)
(0.99435833791656 -0.043120254167558 0)
(0.99435739614354 -0.046529530773674 0)
(0.99440120715396 -0.050028045904981 0)
(0.99467260148126 -0.053943815921591 0)
(0.99494229896916 -0.05779522419397 0)
(0.99560728314364 -0.062340086991657 0)
(0.99616177312159 -0.066413500764602 0)
(0.997374575408 -0.071693139330973 0)
(0.9983371141752 -0.075692352036616 0)
(1.0003697980255 -0.081858485644062 0)
(1.0000000382578 -0.00052589031119252 0)
(0.99994752461857 -0.0015746739208941 0)
(0.99984258095416 -0.0027549603709038 0)
(0.99968371405136 -0.0041003796631574 0)
(0.999469979553 -0.0055845790529723 0)
(0.9992022321706 -0.0071783820568067 0)
(0.99888280170135 -0.0088654289395121 0)
(0.99851574871344 -0.010641049106321 0)
(0.99810666745757 -0.012503872906125 0)
(0.99766212278463 -0.014454322996564 0)
(0.99718872424474 -0.016492396757654 0)
(0.99669402159257 -0.018620708510061 0)
(0.99618503838678 -0.020842082959779 0)
(0.9956702468076 -0.023165609677171 0)
(0.99515679309676 -0.025596612643229 0)
(0.99465496170816 -0.028147882906818 0)
(0.9941716226953 -0.030817054522819 0)
(0.99372141562171 -0.033623525726852 0)
(0.99330814850847 -0.036553620573575 0)
(0.9929569318434 -0.039660211283017 0)
(0.99265911118763 -0.042904272163942 0)
(0.99246766257988 -0.046414721111322 0)
(0.99233533581809 -0.050049670690391 0)
(0.99238840341409 -0.054109273136193 0)
(0.99247300941858 -0.058143252244828 0)
(0.99289147570291 -0.062904141166274 0)
(0.993255058698 -0.067178656431138 0)
(0.99419732158964 -0.072828366723725 0)
(0.99501949258203 -0.076994032863931 0)
(0.99673745337349 -0.083766497613318 0)
(0.9999998106654 -0.00049949745611502 0)
(0.9999419023687 -0.0014903426770901 0)
(0.9998256882088 -0.0026124342204837 0)
(0.99964767520289 -0.0038997618331212 0)
(0.99940684380446 -0.005325680216864 0)
(0.99910513118558 -0.0068630500549949 0)
(0.99874369825633 -0.0084950065976757 0)
(0.99832531170677 -0.010219703265987 0)
(0.99785627145567 -0.012037031340528 0)
(0.99734304137574 -0.013948115281798 0)
(0.99679225909128 -0.015953728045636 0)
(0.9962110900551 -0.018056624596744 0)
(0.99560692046492 -0.020260594912433 0)
(0.99498734122589 -0.022574691645972 0)
(0.99436025815717 -0.025005872615319 0)
(0.99373367854952 -0.027566160051997 0)
(0.99311693217246 -0.030257155759118 0)
(0.99251992737564 -0.033094946907155 0)