/*--------------------------------*- C++ -*----------------------------------*\
| =========                 |                                                 |
| \\      /  F ield         | OpenFOAM: The Open Source CFD Toolbox           |
|  \\    /   O peration     | Version:  2112                                  |
|   \\  /    A nd           | Website:  www.openfoam.com                      |
|    \\/     M anipulation  |                                                 |
\*---------------------------------------------------------------------------*/
FoamFile
{
    version     2.0;
    format      ascii;
    arch        "LSB;label=32;scalar=64";
    class       volScalarField;
    location    "11.3";
    object      p;
}
// * * * * * * * * * * * * * * * * * * * * * * * * * * * * * * * * * * * * * //

dimensions      [0 2 -2 0 0 0 0];

internalField   nonuniform List<scalar> 
22000
(
0.0055089805685878
0.005488004711908
0.0054445192586132
0.0053774910433365
0.0052864749047056
0.0051715241672613
0.0050329402893111
0.0048710646190177
0.0046861888223875
0.0044785645887985
0.0042484456362362
0.0039961197600937
0.003721915015162
0.0034262022045024
0.0031093852057325
0.0027719066690215
0.0024142328283349
0.0020368742395532
0.0016403565285187
0.0012252673727769
0.00079218731227289
0.00034179445711858
-0.00012529311072747
-0.00060828170720838
-0.0011065556198725
-0.0016191502024274
-0.0021455407920221
-0.0026844729070308
-0.0032357277425427
-0.0037975339360814
0.005903981088569
0.005881689799831
0.0058364257321986
0.005767274247309
0.0056737579993924
0.0055558629673451
0.0054138414944552
0.0052480100394738
0.0050586502509011
0.0048460096235531
0.0046103369045086
0.0043519138652126
0.004071060660802
0.0037681422798478
0.0034435557775944
0.003097741988107
0.0027311618072649
0.0023443295503824
0.0019377646559456
0.0015120673128749
0.0010678067164075
0.00060568952632501
0.00012630739112468
-0.00036948852941989
-0.00088114399878391
-0.0014075877345283
-0.0019484349162937
-0.0025022430138838
-0.0030691281740884
-0.0036469984149127
0.0066305425361739
0.0066071682881302
0.0065598012428634
0.0064875682091202
0.0063900245920351
0.0062671613033328
0.0061192150803062
0.0059464825411653
0.0057492294652251
0.0055276920248594
0.0052821077771131
0.0050127480288474
0.0047199204765076
0.0044039807017939
0.0040653133849938
0.0037043544410482
0.0033215530358786
0.0029174275767207
0.0024924842641795
0.0020473438972161
0.0015825536360859
0.0010988722765799
0.00059684351743933
7.7431061003516e-05
-0.00045891908807249
-0.0010109109810247
-0.0015784031582628
-0.0021595212116346
-0.0027549841559244
-0.0033619360278317
0.0076459778423307
0.0076213430299079
0.0075714212265546
0.0074953002536692
0.0073925263282639
0.0072630935644122
0.0071072362431481
0.0069252396487944
0.0067173521205382
0.0064837907040479
0.0062247716121346
0.0059405463694518
0.0056314006925659
0.0052976725736944
0.0049397241962021
0.0045579790534562
0.0041528633214964
0.0037248948610772
0.003274553796951
0.0028024837892442
0.0023091927508966
0.0017955079997636
0.0012618961769825
0.00070947624640849
0.00013852784707229
-0.00044934034573675
-0.0010543586721535
-0.0016740595312956
-0.0023100809267257
-0.0029585204832041
0.0089139337443897
0.0088878242851395
0.008834905988235
0.0087542110578575
0.0086452613122002
0.0085080443547595
0.0083427857447374
0.0081497530666428
0.0079291683081926
0.0076812181206703
0.0074060838918919
0.0071039833796848
0.006775164973122
0.0064199345422169
0.0060386150964002
0.0056316034870804
0.0051992846119866
0.0047421638564976
0.0042606746675863
0.003755477789849
0.00322701600034
0.0026761924903185
0.002103358046002
0.0015098195819787
0.0008956226246542
0.0002627691113983
-0.00038947245097339
-0.0010578681502562
-0.0017452543493026
-0.002446333039107
0.010402872616126
0.010375149140244
0.010318948094908
0.010233239123443
0.010117512995652
0.0099717421430609
0.0097961319389547
0.00959091905789
0.0093562845594186
0.0090923690159632
0.0087993013062627
0.0084772467191411
0.0081263955048864
0.0077470007586179
0.0073393229645831
0.006903711056412
0.0064404828684804
0.0059501115816858
0.0054329550550749
0.0048896768717944
0.0043206199173897
0.003726761904527
0.0031082901814594
0.0024667249856892
0.0018018036108813
0.0011159965924471
0.00040793922375583
-0.0003181988945509
-0.0010667382356743
-0.0018306584380062
0.01208449987145
0.012055111227288
0.011995518464205
0.01190462347092
0.011781879842207
0.011627235559605
0.011440862497476
0.011222950293289
0.010973620942727
0.010692949418367
0.01038099033107
0.010037833305191
0.0096635845169289
0.0092584178288584
0.0088225013485126
0.0083561077239897
0.0078594542112026
0.0073329538442154
0.0067768511360824
0.0061917891364192
0.0055779662714808
0.0049364238052862
0.0042671279501369
0.0035718269287582
0.0028498647954226
0.0021042443019933
0.00133282340223
0.00054085964260632
-0.00027775350729115
-0.0011139763188999
0.013932549047886
0.013901532140494
0.013838616118851
0.013742632007706
0.01361299044537
0.013449604675301
0.013252598022275
0.013022094747574
0.0127581370176
0.012460711639404
0.012129773689742
0.011765309858331
0.011367311586397
0.010935841620901
0.010470939686274
0.0099727668822366
0.0094413986872848
0.0088771515992295
0.0082801097363205
0.0076508621680901
0.0069894075109318
0.0062968278325774
0.0055727983108988
0.0048192971785844
0.0040351782092662
0.0032240247331163
0.0023827617615506
0.0015178689124311
0.00062113948327044
-0.00029610302876444
0.015922021440499
0.015889499106734
0.015823502491166
0.015722790799289
0.0155867261496
0.015415175791466
0.015208198048879
0.0149658319103
0.014688017209934
0.014374627943112
0.014025491842161
0.013640462219123
0.013219381310743
0.012762164292591
0.012268681222466
0.011738940192697
0.011172826722723
0.010570516288992
0.0099318766921594
0.0092573992798486
0.008546816566111
0.0078012157937608
0.0070198987460782
0.0062050591439444
0.0053549502821685
0.004473766990751
0.0035573361563965
0.0026134731259552
0.0016315490321211
0.00062538945076769
0.018028777062198
0.017994953894749
0.017926285342091
0.017821459720937
0.017679785435828
0.017501071986066
0.017285295620613
0.017032389624546
0.016742168455149
0.016414367787643
0.016048658971701
0.015644729627308
0.015202235959194
0.014720905855299
0.014200394627073
0.013640510852762
0.013040896346271
0.01240153377417
0.011722011236893
0.011002668476271
0.010242896686129
0.0094437385391416
0.0086040297355849
0.0077261458672306
0.0068076171260316
0.0058532543469508
0.0048576045435695
0.0038299047795498
0.0027567708296421
0.0016546965071768
0.020229381374104
0.020194536419941
0.020123756324566
0.020015660836742
0.019869499839501
0.019685013630045
0.01946207997458
0.019200506831534
0.018899961066823
0.018560015007212
0.018180154924258
0.017759870090829
0.017298593396158
0.016795824058182
0.016250955932381
0.015663547859006
0.015032941032068
0.014358866776175
0.013640565502098
0.012878160301133
0.01207062104017
0.011218878503887
0.010321207785697
0.0093801061279275
0.0083922583545623
0.0073630609301168
0.0062855917630176
0.0051705469545044
0.0040014330961567
0.0027974917288254
0.022501129956867
0.022465607171434
0.022393408653467
0.02228308794828
0.022133831808725
0.021945301372299
0.021717261876708
0.021449378694198
0.021141151226066
0.02079196532458
0.020401095570317
0.01996780152059
0.019491257264047
0.018970692001631
0.018405192655733
0.017794015677497
0.017136145298964
0.016430996119365
0.015677393944223
0.014875164736585
0.014022783817469
0.013120968998577
0.012167366038661
0.01116446744217
0.01010805026705
0.0090039713235677
0.0078436851444463
0.0066393555689852
0.0053707985612573
0.0040604354107927
0.024822190276802
0.024786385131141
0.024713569527605
0.024602231848773
0.024451490960676
0.024260921009723
0.024030164171502
0.023758729732444
0.023445933581502
0.023090955550671
0.022692835778709
0.022250576073106
0.02176306009976
0.021229208083838
0.020647758225491
0.0200176118859
0.019337343899251
0.018605980998126
0.01782187425658
0.016984453442925
0.016091643109252
0.015143803420878
0.014137918798102
0.013076279554026
0.011953740265461
0.010776459091074
0.0095341497065094
0.0082404878152856
0.0068710120859642
0.0054503141091592
0.027171817245358
0.027136159312879
0.027063602219949
0.026952571121886
0.026802114998046
0.026611715730228
0.026380884500068
0.0261089647483
0.025795077307937
0.025438181648773
0.025037065912971
0.02459045216158
0.024096907307219
0.023555009791773
0.022963111658756
0.022319712171512
0.021622926426083
0.02087132799517
0.020062727890466
0.019196073457267
0.018268653955223
0.017280364532831
0.016227425135783
0.015111764498768
0.01392727611095
0.012679989682151
0.011358324233342
0.0099762292142322
0.0085070339121367
0.0069760998379673
0.029530596234881
0.029495535679367
0.029424148127043
0.029314807078099
0.029166495700058
0.028978601582047
0.028750500128376
0.02848136329882
0.028170109901651
0.027815470144592
0.027415968725574
0.026970033333137
0.026475894958764
0.025931766176902
0.025335581941051
0.024685402203435
0.023978835240588
0.023213947832548
0.022387942452246
0.021499211684611
0.020544313172247
0.019522585813429
0.018429353314794
0.017266078086887
0.016025507692063
0.014713467897307
0.013316773997405
0.011849753687805
0.010282899104502
0.0086424953009478
0.031880633536001
0.031846624284131
0.031777325755652
0.031671076070534
0.031526800560885
0.031343793482716
0.031121293096343
0.030858299179399
0.030553528342413
0.030205480230275
0.029812411938131
0.0293724496756
0.028883477793971
0.028343328263403
0.027749498048713
0.027099580786868
0.026390641200777
0.025620194907994
0.024784776951067
0.023882159146421
0.022908079048006
0.021861228711467
0.020735911043792
0.019533008353887
0.018243959486882
0.016874249969069
0.015408858733619
0.013862329476097
0.012201834598655
0.010454320840209
0.034205735971633
0.034173221996132
0.034106914046614
0.034005133655843
0.033866759002387
0.033690995119113
0.033476946000795
0.033223443664069
0.032929008089211
0.032591914057877
0.032210155925452
0.031781561177787
0.03130366634427
0.03077391811443
0.030189365601802
0.029547121128239
0.02884368169222
0.028075980469386
0.027239839065465
0.026332354784321
0.025348367880701
0.0242858403896
0.023137933166792
0.021904832678456
0.020576494719502
0.019157935216186
0.017632053986196
0.016013461013488
0.014265504856031
0.012415280350454
0.036491550212778
0.036460953000692
0.03639849373889
0.036302498149419
0.036171810190761
0.036005552672705
0.03580270221928
0.035561932553408
0.035281578740405
0.034959703117285
0.034594049865617
0.034182159464607
0.033721231059969
0.033208332986959
0.032640068803523
0.032013067004273
0.031323246913226
0.030566942401093
0.029739231522079
0.028836499404834
0.0278526285781
0.026784785420388
0.025624878454475
0.024372291998209
0.023015300399646
0.021558311061577
0.019981852770519
0.018300513995292
0.016473330537268
0.014527037618878
0.038725642916637
0.038697352603369
0.038639535898737
0.038550544101607
0.038429202202251
0.038274561534334
0.038085482858929
0.037860495196379
0.037597765304236
0.037295161394152
0.036950198157203
0.036560148912403
0.036121896277561
0.035632147702191
0.035087078299189
0.034482842215033
0.033814788395283
0.033078648037803
0.032268745779201
0.031380731014921
0.030407490089191
0.029345347284372
0.028184876012114
0.026924589241897
0.025550891056082
0.024067438040417
0.02245196964821
0.020718858230717
0.018822332360695
0.016788475384038
0.040897514133648
0.040871886986843
0.040819434594933
0.040738549869171
0.040628052198895
0.040486936607589
0.040313967145986
0.040107547521131
0.039865697304289
0.039586112544937
0.039266106117649
0.038902710862216
0.038492525302536
0.038031920859219
0.037516676709963
0.036942490848735
0.036304172118037
0.03559685274274
0.034814126547699
0.033950887121652
0.032999027397172
0.031953975772629
0.030804938515783
0.029549497570232
0.028172104257091
0.026675630866463
0.025034580392102
0.023262762625761
0.021308356185199
0.019196338736255
0.042998548607023
0.042975903731858
0.042929461273283
0.042857667237025
0.042759347083214
0.04263345133832
0.042478663922017
0.042293285777251
0.042075220577439
0.041822023016329
0.041530839975129
0.041198495188179
0.040821346671699
0.040395457616821
0.039916261818603
0.039379020593758
0.038778066859005
0.038107930244621
0.037361552528311
0.036533024321465
0.035613341431143
0.034596920363706
0.033471683949152
0.032234106385608
0.030866721779207
0.02937171250246
0.027720262215077
0.025926016872269
0.023928521387069
0.02174979650871
0.045021934045588
0.04500253181174
0.044962638794243
0.044900763100917
0.044815769443991
0.044706585600933
0.044571815809518
0.044409659015148
0.044217928788578
0.043994076933993
0.043735131625853
0.043437750331262
0.043098109349838
0.042711993805292
0.042274560591196
0.041780645297982
0.041224207788836
0.040599145328121
0.039897917295051
0.039113687494361
0.038236836065664
0.03726046725697
0.036171658264357
0.034965168655701
0.033622095847916
0.032143099221323
0.030496744222214
0.028697910466683
0.026676800161382
0.024451826934602
0.046962610033299
0.046946561607666
0.046913547105573
0.046862153893825
0.046791327029516
0.04669999641849
0.0465866995611
0.046449542682512
0.046286266437279
0.04609423960748
0.045870399554731
0.045611271377107
0.045312902178261
0.044970830183291
0.044580021870708
0.044134897608987
0.043629167700941
0.043056016705659
0.042407661484032
0.04167607448066
0.040851557881732
0.039925203761674
0.038884427519424
0.037720643976605
0.036415805242571
0.034965224767331
0.033337863241789
0.031544250451707
0.029514019445383
0.027270292004783
0.048817447265834
0.048804574218193
0.048778268661215
0.048737418199138
0.048681106173411
0.048608160236371
0.048516979531125
0.048405598270586
0.048271761352474
0.048112827381889
0.047925716117837
0.047706855905876
0.047452154966472
0.04715687491841
0.046815794846814
0.04642291388479
0.045971765595172
0.04545475781748
0.044864020695306
0.044190005024483
0.043423413658719
0.042552313604449
0.04156608265951
0.040449876803683
0.039191716199446
0.037773260249995
0.036176838175427
0.034380657365251
0.032335922976279
0.030036942810196
0.05058591595792
0.050576166101018
0.050556044824837
0.050525390006189
0.050483531280876
0.050429221087192
0.050360566758869
0.050275416251451
0.050171384210586
0.050045905977946
0.049896159620254
0.049718700007947
0.04950943859286
0.049263437492856
0.048975238307601
0.048638379479665
0.048246170435087
0.047790381689561
0.047263129847984
0.046653545757643
0.045952765609029
0.045145802725757
0.04422439348466
0.043166455992198
0.041968929947568
0.040595204699545
0.039057087324625
0.037279261534672
0.035274355354095
0.032796055404138
-0.0043349936756964
-0.0048456765089031
-0.0053635617032391
-0.0058876254085882
-0.0064169637166724
-0.006950795575727
-0.0074884276768576
-0.0080291952149204
-0.008572406877347
-0.0091173305790067
-0.0096632155741184
-0.010209314301774
-0.010754887297876
-0.011299201808191
-0.011841533102149
-0.012381167131898
-0.012917402433639
-0.013449551538944
-0.013976943021642
-0.014498923470587
-0.01501485870285
-0.01552413175921
-0.016026138219775
-0.016520273901785
-0.01700593202017
-0.017482600289004
-0.017950096787012
-0.018408026607072
-0.018855905086874
-0.019293287104109
-0.019719807005084
-0.020135166423126
-0.020539117374788
-0.020931448505092
-0.021311985455698
-0.021680583616347
-0.022037139315523
-0.022381576069042
-0.022713867142799
-0.023034000800027
-0.023342029615924
-0.023637993407263
-0.02392203151825
-0.024194212730358
-0.024454785596209
-0.024703805747042
-0.024941688729879
-0.025168406437304
-0.025384697474121
-0.025590398808948
-0.0041970328649708
-0.0047165988136007
-0.0052441612617686
-0.0057779886590761
-0.006316861414685
-0.0068600254699814
-0.0074069928952967
-0.0079572971247996
-0.0085103375538501
-0.0090653840213838
-0.0096216658008012
-0.010178426041902
-0.010734920159077
-0.011290403865549
-0.0118441331519
-0.01239536765131
-0.012943371212896
-0.013487413286824
-0.014026772635083
-0.014560742066956
-0.01508863251633
-0.015609779976981
-0.01612355716164
-0.016629397445967
-0.017126813303113
-0.017615295875314
-0.018094021745683
-0.0185624602268
-0.019020231176173
-0.019466981428016
-0.019902362044435
-0.020326042900478
-0.020737732183443
-0.021137177270556
-0.021524173283449
-0.02189855186319
-0.022260198113716
-0.022609023246424
-0.022945002736094
-0.023268116462215
-0.023578435471573
-0.023875988357488
-0.024160956499539
-0.024433377259099
-0.024693579148399
-0.024941523596172
-0.025177763894193
-0.025401985592926
-0.025615069944613
-0.025815820058664
-0.003937546125191
-0.0044798455645654
-0.0050321033743922
-0.0055908919080028
-0.0061540899652392
-0.0067208314700279
-0.0072909370069711
-0.0078642562334912
-0.0084402991583388
-0.0090182779166189
-0.0095973326077994
-0.010176653678317
-0.010755467749601
-0.011333003521617
-0.01190848784486
-0.012481149706861
-0.013050219036092
-0.013614928084127
-0.014174518504998
-0.014728248664204
-0.015275398115692
-0.015815269125127
-0.016347186060111
-0.016870486611516
-0.01738450691315
-0.017888595057378
-0.018382255103934
-0.018864979184876
-0.019336292284159
-0.01979576485878
-0.020243010216467
-0.020677678295745
-0.02109946438986
-0.021508104853061
-0.021903392174468
-0.022285155538154
-0.022653288662592
-0.023007704890443
-0.023348401621661
-0.02367536083109
-0.023988695792653
-0.024288427029936
-0.024574814695728
-0.024847852889453
-0.025108021089074
-0.025355137482123
-0.025590041196299
-0.025811965240153
-0.026022176559087
-0.026217706431924
-0.0035721210111394
-0.0041500858424155
-0.0047406308307586
-0.0053375767013805
-0.0059374595208441
-0.0065393265064422
-0.0071435161894534
-0.0077503699737769
-0.0083595692918055
-0.0089702497006855
-0.009581435185206
-0.010192262264563
-0.010801944694932
-0.011409702790012
-0.012014751787946
-0.012616306772757
-0.013213578432848
-0.013805773414052
-0.014392104011078
-0.01497179739819
-0.015544098983534
-0.016108273220047
-0.016663606006998
-0.017209411333254
-0.017745042579893
-0.018269898690599
-0.01878338213687
-0.019284949438797
-0.01977410290215
-0.020250385362076
-0.020713386021951
-0.021162737147268
-0.021598124643683
-0.022019276245215
-0.022425981595027
-0.022818062972728
-0.023195418835957
-0.023557957244803
-0.023905694081395
-0.024238603004547
-0.02455683861692
-0.024860396847354
-0.025149623422661
-0.02542443814731
-0.025685495687259
-0.025932395640432
-0.026166312038404
-0.026385792360647
-0.026592485648525
-0.026780723811103
-0.0031088346112651
-0.0037338811141662
-0.0043748995138821
-0.0050218733722577
-0.0056695730694591
-0.0063170227389603
-0.0069653093852479
-0.0076154405780054
-0.0082673194265541
-0.0089199744498321
-0.0095722763654606
-0.010223297863056
-0.010872247512862
-0.011518346398545
-0.012160804324177
-0.012798826641885
-0.013431607473144
-0.014058329409014
-0.014678177513125
-0.015290352328296
-0.015894074158612
-0.016488583602528
-0.017073144267229
-0.01764704654106
-0.018209611170218
-0.018760191809695
-0.019298180299261
-0.019823005026807
-0.020334138192791
-0.020831095601187
-0.021313444456131
-0.021780796953359
-0.022232823314051
-0.022669234689161
-0.023089810624984
-0.023494359202291
-0.023882777316245
-0.024254960415865
-0.024610936845624
-0.024950663954324
-0.025274333058384
-0.025581904997508
-0.025873809873941
-0.026149873964609
-0.026410936051678
-0.026656332302713
-0.02688760676167
-0.027102490370471
-0.027303066350072
-0.027480398272051
-0.0025520434137882
-0.0032348961033103
-0.0039380830267693
-0.0046465195299126
-0.0053527488009691
-0.0060558531361109
-0.006757915056309
-0.0074607798465757
-0.0081646095523295
-0.0088682820696632
-0.0095704679115293
-0.010270160236635
-0.010966566759792
-0.011658915222799
-0.012346412403341
-0.013028254620291
-0.01370361924156
-0.014371664171116
-0.015031546956687
-0.015682441800246
-0.016323543670988
-0.016954066862744
-0.017573246430815
-0.018180341615932
-0.018774640580148
-0.019355468217631
-0.019922192192174
-0.020474214066474
-0.021010978136504
-0.021531972432916
-0.022036738599133
-0.022524863541282
-0.022995995894238
-0.023449824458758
-0.023886112506573
-0.02430464861498
-0.024705321120705
-0.025088006931936
-0.0254527376183
-0.025799448087296
-0.026128354615667
-0.026439377359007
-0.026733017150783
-0.027009001267083
-0.027268340900842
-0.02751009602167
-0.02773617754767
-0.027943433788262
-0.028134354386074
-0.028296290973426
-0.0019035723803601
-0.0026546263946252
-0.0034315280027235
-0.0042126878197046
-0.0049879214688529
-0.0057564940950785
-0.0065217719297565
-0.0072866209387136
-0.0080514921018748
-0.0088150586867809
-0.0095757377080502
-0.010332425423777
-0.011084333996622
-0.011830705087243
-0.012570744948148
-0.013303640323028
-0.014028550103162
-0.014744605242475
-0.015450933552677
-0.016146680943639
-0.016831015006201
-0.017503121516219
-0.01816220540926
-0.018807495055976
-0.01943824841072
-0.020053760883968
-0.020653365832655
-0.021236432290725
-0.021802372770088
-0.022350642623291
-0.02288075145026
-0.023392253841618
-0.023884768084131
-0.024357952354509
-0.024811542956976
-0.025245299368094
-0.025659087123695
-0.026052754865129
-0.026426318743514
-0.026779682816579
-0.027113063096053
-0.027426334627917
-0.027720034916363
-0.027993794550875
-0.028248751019226
-0.028483698551654
-0.028700850543744
-0.028896164064763
-0.029072403305032
-0.029212914917714
-0.0011626146764823
-0.0019921084057991
-0.0028543449016412
-0.0037195238906982
-0.0045741800164035
-0.0054179431237378
-0.0062558064664604
-0.0070918551535792
-0.0079268506939671
-0.0087591964082464
-0.0095869958677325
-0.01040902915821
-0.011224518789913
-0.012032727844205
-0.012832863475138
-0.013624100289995
-0.014405574427644
-0.015176385324343
-0.015935627117185
-0.016682414173033
-0.017415883736998
-0.018135190016761
-0.018839504485552
-0.019528020642409
-0.02019996056797
-0.020854583242517
-0.021491182301526
-0.022109086781315
-0.02270766908149
-0.023286343890576
-0.02384457912069
-0.024381887210057
-0.024897843889259
-0.025392065124841
-0.025864244170097
-0.02631409912655
-0.026741452514519
-0.027146112764487
-0.027528053383949
-0.027887139065505
-0.028223547968946
-0.028537109006664
-0.028828342271172
-0.029096794471036
-0.029343648273481
-0.029567468912104
-0.029770645657276
-0.029948312101372
-0.030103287631621
-0.030214854494847
-0.00032609758892613
-0.0012442596691697
-0.0022037318852734
-0.0031644506541951
-0.0041090463597941
-0.0050377714225234
-0.0059576636407405
-0.0068742440647605
-0.0077885892896917
-0.0086987486989157
-0.009602445385524
-0.010498324359486
-0.011385625983217
-0.012263642894319
-0.013131583550326
-0.013988605580987
-0.014833815863497
-0.015666275815972
-0.016485040166855
-0.017289186826414
-0.018077817871808
-0.018850050666135
-0.019605017263547
-0.020341869738157
-0.021059787154468
-0.021757984759912
-0.022435708485659
-0.023092239013975
-0.023726898605316
-0.02433905070119
-0.024928109032633
-0.025493531859473
-0.026034836238638
-0.026551582141397
-0.027043399756907
-0.027509950760149
-0.027950988086346
-0.02836626570936
-0.028755678722544
-0.029119041764957
-0.029456445282523
-0.029767669633979
-0.03005314836293
-0.030312358484875
-0.030546427331063
-0.03075374319543
-0.030936705297112
-0.031089760401166
-0.031215454942023
-0.031289151165691
0.00061088102208916
-0.00040624328366019
-0.0014752585706316
-0.0025433924993883
-0.003588662195859
-0.0046122744201417
-0.0056238086919571
-0.00663046402367
-0.0076336222214277
-0.0086308741445705
-0.0096194850004816
-0.010597945551667
-0.011565525133334
-0.012521555615569
-0.013465245353156
-0.014395726887206
-0.015312068404807
-0.016213285242755
-0.017098386147224
-0.017966406464949
-0.018816406704455
-0.019647460484494
-0.020458652964434
-0.021249086984465
-0.022017890183959
-0.02276422533625
-0.023487280473844
-0.02418627726828
-0.024860475560748
-0.025509175562565
-0.026131721476399
-0.026727502948611
-0.027295959348309
-0.027836578352264
-0.028348902163981
-0.028832518493565
-0.029287079020554
-0.0297122650971
-0.030107851896339
-0.030473587224553
-0.030809420289315
-0.031115065406181
-0.031390805797174
-0.031636024295987
-0.031851724864487
-0.032036087178434
-0.03219143388912
-0.03231157543166
-0.032398437662634
-0.03242379282127
0.0016546859387029
0.00052805245357992
-0.00066333243679661
-0.0018510904881035
-0.0030079400758365
-0.0041365430159686
-0.0052495907314765
-0.0063561735956351
-0.0074579254949514
-0.0085518585716329
-0.0096347037315824
-0.010704780004763
-0.011761397975353
-0.012803940787347
-0.013831615571737
-0.014843518544439
-0.015838666205227
-0.016816017481539
-0.017774527200826
-0.018713180859841
-0.019630989494451
-0.020526974469421
-0.021400165094367
-0.022249605822846
-0.023074363012217
-0.02387353657601
-0.024646244809292
-0.025391638639517
-0.026108901398846
-0.02679725581192
-0.027455958962841
-0.028084315569148
-0.028681664727973
-0.029247403056672
-0.029780956712198
-0.030281818261955
-0.030749502368052
-0.031183594359756
-0.031583706071051
-0.031949492272124
-0.032280714281536
-0.032576983377566
-0.032838405754111
-0.033064187200241
-0.033255251553044
-0.033409334448143
-0.03352893303903
-0.033606696999173
-0.033643627017757
-0.033609125587774
0.0028130571278833
0.001566042677181
0.00023860970794146
-0.0010815355422432
-0.0023610316492953
-0.0036048085374941
-0.0048294578222796
-0.0060461572316406
-0.0072566438918564
-0.0084571897438811
-0.0096439233206811
-0.010814986382616
-0.011969743938776
-0.013107638183342
-0.014227869797483
-0.0153294842377
-0.01641143058192
-0.017472599415787
-0.018511882952913
-0.019528208538981
-0.020520528426082
-0.021487801693409
-0.022428991279665
-0.023343072675259
-0.024229039657982
-0.025085917647292
-0.025912742130127
-0.026708579938581
-0.027472522353769
-0.028203699428708
-0.02890126173288
-0.029564410284139
-0.030192359905286
-0.030784393935964
-0.031339790917353
-0.031857922655015
-0.032338125987489
-0.032779860126595
-0.033182518822335
-0.033545633762661
-0.033868697395192
-0.03415120993714
-0.034392975287252
-0.034593133612983
-0.034752286817747
-0.034868237152963
-0.03494339381202
-0.034969993603282
-0.034939878222716
-0.034826834191482
0.0040938861977647
0.0027156684762299
0.001238063658696
-0.00022765560258051
-0.0016411580040759
-0.0030105316705557
-0.0043571551329753
-0.0056945155750422
-0.007024261119554
-0.008341718412992
-0.009642340928159
-0.010924104667316
-0.012186453199519
-0.013428894321297
-0.01465061032932
-0.015850575481319
-0.017027652613599
-0.018180650222312
-0.019308387293056
-0.020409722890056
-0.021483539379577
-0.022528721810953
-0.023544154798262
-0.024528733118019
-0.025481365816251
-0.026400991235315
-0.027286548173965
-0.028137005361127
-0.028951345726025
-0.029728589776708
-0.030467761847504
-0.031167939386222
-0.031828187982356
-0.032447653560628
-0.033025434401153
-0.033560754636166
-0.034052723336597
-0.034500650148099
-0.034903622447305
-0.035261051934201
-0.035571953355549
-0.035835842031956
-0.036051618756158
-0.036218934733695
-0.036336118065533
-0.036403584719431
-0.036418365853309
-0.036381294055582
-0.036291941905012
-0.036082333056736
0.0055060087643849
0.0039844918860139
0.002342047868971
0.00071763551289351
-0.00084116535615979
-0.00234671388503
-0.0038259688375279
-0.0052948538044069
-0.0067547147754543
-0.0081997235645962
-0.0096245814317658
-0.011027113719548
-0.01240687038661
-0.013763425719481
-0.015095921618893
-0.016403234159054
-0.017684118840841
-0.018937288009644
-0.020161476374391
-0.021355463014989
-0.022518047327492
-0.023648026751761
-0.024744194067997
-0.025805350213258
-0.026830306280082
-0.027817899971565
-0.028766959351936
-0.029676340134142
-0.030544900509168
-0.031371534540478
-0.032155119957686
-0.032894590568041
-0.03358883741302
-0.034236847071068
-0.034837501700438
-0.035389859917999
-0.035892743719952
-0.036345314671933
-0.036746251778465
-0.037094887918814
-0.037389593903875
-0.03763004112012
-0.037814046413311
-0.037941778383739
-0.038010190751896
-0.038020825006869
-0.037971139605103
-0.037851773362442
-0.037684465562401
-0.037403928700733
0.0070566552024755
0.0053805688958956
0.0035584582475504
0.0017620048237876
4.6502967651935e-05
-0.0016059592957755
-0.0032287917948619
-0.0048404197650755
-0.0064415971722662
-0.0080251134626133
-0.0095848639067896
-0.011118559974838
-0.012625889186841
-0.014106485006919
-0.015559416115885
-0.016983425146703
-0.018377135477609
-0.019739147687892
-0.021068099225699
-0.02236267523822
-0.02362157697332
-0.024843498925154
-0.026027127486983
-0.027171155681674
-0.028274283169914
-0.029335232466995
-0.030352706397581
-0.031325432382798
-0.032252127944682
-0.033131543431776
-0.033962390461472
-0.034743440575427
-0.035473384249463
-0.036151028352232
-0.036775006744503
-0.037344189568088
-0.037857072429419
-0.038312638341957
-0.038709146777278
-0.039045717432289
-0.039320304515571
-0.039532196081272
-0.039679091140835
-0.039759896004302
-0.039773951757363
-0.039716653667648
-0.03959201658958
-0.039384547308982
-0.039103360528653
-0.038711508465702
0.0087525941846232
0.0069110323739986
0.0048943536819978
0.0029126023587424
0.0010291727198665
-0.0007809332057874
-0.0025584923448312
-0.0043243701397934
-0.0060783368799528
-0.0078115698999719
-0.0095171412485609
-0.011192701062123
-0.012838096811375
-0.01445299780122
-0.016036355143876
-0.017586738178866
-0.019102611946115
-0.02058244844975
-0.022024772587088
-0.02342815777121
-0.024791188262863
-0.026112437761291
-0.02739047040307
-0.028623856512683
-0.029811170072041
-0.030951003752174
-0.032041921905241
-0.033082507634085
-0.034071323495991
-0.035006957376452
-0.035887939974463
-0.036712856464026
-0.037480183858274
-0.038188511991414
-0.038836228469172
-0.039421937010971
-0.03994386299119
-0.040400649293703
-0.040790290981674
-0.041111389390086
-0.041361858210843
-0.041540010678898
-0.041643749675725
-0.041671181548854
-0.041620305739699
-0.041487550732248
-0.041272546100016
-0.040967942861994
-0.040570231529099
-0.040041793302199
0.010599346853648
0.0085816567075729
0.0063556796310357
0.004175880133587
0.0021137769513713