/*--------------------------------*- C++ -*----------------------------------*\
| =========                 |                                                 |
| \\      /  F ield         | OpenFOAM: The Open Source CFD Toolbox           |
|  \\    /   O peration     | Version:  2112                                  |
|   \\  /    A nd           | Website:  www.openfoam.com                      |
|    \\/     M anipulation  |                                                 |
\*---------------------------------------------------------------------------*/
FoamFile
{
    version     2.0;
    format      ascii;
    arch        "LSB;label=32;scalar=64";
    class       volVectorField;
    location    "11.3";
    object      U;
}
// * * * * * * * * * * * * * * * * * * * * * * * * * * * * * * * * * * * * * //

dimensions      [0 1 -1 0 0 0 0];

internalField   nonuniform List<vector> 
22000
(
(1.000000955834 -2.4767453849248e-05 0)
(1.0000255051622 -7.4107064920855e-05 0)
(1.0000727196896 -0.00012311176004288 0)
(1.0001435114881 -0.00017197867915932 0)
(1.0002383687612 -0.00022087088298468 0)
(1.0003573714688 -0.00026975689458251 0)
(1.0005003326299 -0.00031846761762513 0)
(1.0006669793463 -0.00036683387833664 0)
(1.0008570503886 -0.00041473405063843 0)
(1.0010703193124 -0.00046211301881851 0)
(1.0013065488345 -0.00050892140451571 0)
(1.0015654936853 -0.0005551480173224 0)
(1.0018468609365 -0.00060072628101158 0)
(1.0021503575269 -0.00064565039084439 0)
(1.0024756137045 -0.00068978551884224 0)
(1.0028222863419 -0.00073315526673261 0)
(1.0031899011954 -0.00077551493798888 0)
(1.0035780758884 -0.00081701607443558 0)
(1.0039861930255 -0.00085721119753267 0)
(1.0044138747733 -0.00089657273947287 0)
(1.0048602996802 -0.00093418682095075 0)
(1.0053251970117 -0.00097125504659188 0)
(1.0058074116489 -0.0010057783262664 0)
(1.0063069879503 -0.0010406305301455 0)
(1.0068221657783 -0.0010713008574925 0)
(1.0073537108091 -0.001104485756989 0)
(1.0078987060112 -0.0011298578403389 0)
(1.0084593831038 -0.0011628648306244 0)
(1.0090306361451 -0.0011798231424921 0)
(1.0096175846263 -0.0012162335382868 0)
(1.0000004319322 -7.3025270868815e-05 0)
(1.0000251579917 -0.00021864770539087 0)
(1.0000729769332 -0.00036341962613981 0)
(1.0001447037356 -0.00050788461964922 0)
(1.0002408579992 -0.00065248501213776 0)
(1.0003615732739 -0.00079711224246085 0)
(1.0005067004866 -0.00094127791797858 0)
(1.0006760035496 -0.0010845034999263 0)
(1.0008692469434 -0.0012264437200572 0)
(1.00108624317 -0.0013669332540401 0)
(1.0013267691818 -0.0015058109967863 0)
(1.0015906167742 -0.0016430222703092 0)
(1.0018774748471 -0.0017783544573285 0)
(1.0021870942474 -0.001911779465141 0)
(1.0025190453266 -0.0020429008236131 0)
(1.0028730774553 -0.0021717858902744 0)
(1.0032485872311 -0.0022977218906259 0)
(1.0036453956791 -0.0024211435122991 0)
(1.0040625972994 -0.002540745653897 0)
(1.0045002512451 -0.0026578881224926 0)
(1.0049568936156 -0.0027699183054117 0)
(1.0054332079163 -0.0028803019942837 0)
(1.0059266209596 -0.0029832630927829 0)
(1.006439277642 -0.0030870772130537 0)
(1.0069663023006 -0.0031787581073434 0)
(1.0075130508429 -0.0032775368264826 0)
(1.0080698672853 -0.0033537764335867 0)
(1.0086488360024 -0.003451731202801 0)
(1.0092306187412 -0.0035036428093242 0)
(1.009841124131 -0.0036109271455038 0)
(1.0000004655027 -0.00011975650282719 0)
(1.0000264306318 -0.00035866630100335 0)
(1.0000764873584 -0.00059624600536204 0)
(1.0001513815175 -0.00083339423940984 0)
(1.0002515719793 -0.0010707905362181 0)
(1.0003771591573 -0.0013082483953037 0)
(1.0005279897576 -0.0015450323311767 0)
(1.0007038668881 -0.0017804524638896 0)
(1.0009046024514 -0.0020140040955012 0)
(1.0011300845346 -0.0022454199135994 0)
(1.0013801244781 -0.0024743852499141 0)
(1.0016545765158 -0.0027007459556 0)
(1.0019530989845 -0.0029240920821738 0)
(1.0022755067257 -0.0031443591965278 0)
(1.0026212696302 -0.0033608866830624 0)
(1.0029902819254 -0.0035738208946359 0)
(1.0033817305391 -0.0037819798447381 0)
(1.0037957679132 -0.0039861260247053 0)
(1.0042310154816 -0.0041840473645786 0)
(1.0046882566914 -0.004378065912063 0)
(1.0051649502271 -0.0045636687943365 0)
(1.0056633929553 -0.004746765767433 0)
(1.0061785789878 -0.004917524611757 0)
(1.0067162834822 -0.0050900330751705 0)
(1.0072661549383 -0.005242173090159 0)
(1.0078416664062 -0.0054066560411135 0)
(1.0084210156576 -0.0055330375791438 0)
(1.0090341542409 -0.0056965950519885 0)
(1.0096354008352 -0.0057820920952955 0)
(1.010289536095 -0.0059620036165264 0)
(1.0000004905526 -0.00016616427619552 0)
(1.0000279196979 -0.00049755325386687 0)
(1.0000807292651 -0.00082690682684407 0)
(1.000159659746 -0.0011555667621638 0)
(1.0002651330408 -0.0014844544014968 0)
(1.0003972007686 -0.001813341105651 0)
(1.0005556809659 -0.0021413662830291 0)
(1.0007404157117 -0.0024677796204124 0)
(1.0009512804902 -0.0027920150815624 0)
(1.0011882749118 -0.0031137200984323 0)
(1.0014512647895 -0.0034323677999165 0)
(1.0017401980834 -0.0037476261645795 0)
(1.0020546932435 -0.0040588120179417 0)
(1.0023946602598 -0.0043658071103248 0)
(1.0027594294534 -0.0046676792260765 0)
(1.0031491070695 -0.0049647111893086 0)
(1.0035625853315 -0.005255241249413 0)
(1.0040004972867 -0.0055404362272357 0)
(1.0044607931515 -0.0058170846818454 0)
(1.0049453009056 -0.0060886037909975 0)
(1.0054499418544 -0.0063484008269648 0)
(1.0059793326549 -0.0066051434675261 0)
(1.0065249858185 -0.0068444483640228 0)
(1.0070978903622 -0.0070869232334774 0)
(1.0076798508611 -0.007300177654253 0)
(1.0082959893154 -0.0075320149781064 0)
(1.0089071153689 -0.0077086227362121 0)
(1.009568800332 -0.0079400275756884 0)
(1.0101977032919 -0.00805779452074 0)
(1.0109142482446 -0.0083139758013574 0)
(1.0000005207916 -0.00021255319635982 0)
(1.0000296706449 -0.000636271544334 0)
(1.000085714459 -0.001057043432322 0)
(1.0001693935694 -0.0014767239509 0)
(1.0002810950264 -0.0018964705086559 0)
(1.0004208175275 -0.002316056697474 0)
(1.0005883471583 -0.0027346440692362 0)
(1.0007835791589 -0.0031516016359705 0)
(1.0010064745801 -0.0035664181598052 0)
(1.0012571821018 -0.0039786762585314 0)
(1.0015356444329 -0.0043875674046686 0)
(1.0018419386191 -0.0047924898983278 0)
(1.0021756407082 -0.0051923963358892 0)
(1.0025367935504 -0.0055870953404258 0)
(1.0029245575463 -0.0059753708058267 0)
(1.0033393237319 -0.0063577130530064 0)
(1.0037796148483 -0.0067319602253334 0)
(1.0042466966718 -0.0070997819385251 0)
(1.0047376644268 -0.0074568409312642 0)
(1.0052557084065 -0.0078078270503536 0)
(1.0057947765344 -0.008143770388601 0)
(1.00636249625 -0.0084765184107623 0)
(1.0069458960142 -0.0087864683277676 0)
(1.0075627130906 -0.0091017059072661 0)
(1.0081846408506 -0.0093780340665006 0)
(1.0088518460139 -0.0096805346821927 0)
(1.009502733203 -0.0099085817585441 0)
(1.010225885773 -0.010211996781526 0)
(1.0108894864865 -0.010361456480884 0)
(1.0116854840288 -0.01070009043707 0)
(1.0000005539225 -0.00025909879963626 0)
(1.0000315977981 -0.00077534883456694 0)
(1.0000911940567 -0.0012875342229817 0)
(1.0001800811761 -0.0017981063631664 0)
(1.0002986054376 -0.0023084486969747 0)
(1.0004467080144 -0.0028183825331255 0)
(1.0006241450177 -0.0033272557115124 0)
(1.0008308851261 -0.003834760005135 0)
(1.0010670018009 -0.0043405712279226 0)
(1.0013328337402 -0.0048442315471611 0)
(1.0016284269272 -0.0053445727438265 0)
(1.0019540266545 -0.0058406208613732 0)
(1.0023091698635 -0.006330861452096 0)
(1.0026940747013 -0.0068150101672381 0)
(1.0031077092799 -0.0072915522421623 0)
(1.0035508265522 -0.0077612692153472 0)
(1.004021515836 -0.0082214727918009 0)
(1.0045218299807 -0.0086744533802078 0)
(1.005047841758 -0.0091145957512228 0)
(1.0056044178746 -0.0095480772483161 0)
(1.0061831242914 -0.0099631921936805 0)
(1.0067952707324 -0.010375476861138 0)
(1.0074224510752 -0.010759302009977 0)
(1.0080906264258 -0.011151389535717 0)
(1.0087592204122 -0.011493884288002 0)
(1.0094866849829 -0.011871789815284 0)
(1.0101842565567 -0.012153506847305 0)
(1.0109805341736 -0.012534738146981 0)
(1.0116850248963 -0.012715982970479 0)
(1.0125761630274 -0.013145286209554 0)
(1.0000005877061 -0.00030581371461775 0)
(1.0000336001899 -0.00091481876537082 0)
(1.0000968798603 -0.0015184263533616 0)
(1.0001911578613 -0.0021197766097958 0)
(1.000316733745 -0.0027204700700357 0)
(1.0004734874001 -0.0033204264113587 0)
(1.0006611488569 -0.003919358489815 0)
(1.0008797826817 -0.0045175025442273 0)
(1.0011296040915 -0.0051148667062095 0)
(1.0014111848475 -0.0057109823953325 0)
(1.0017247038235 -0.0063042408087633 0)
(1.002070616965 -0.0068931891485993 0)
(1.0024484313086 -0.0074757377035259 0)
(1.002858587427 -0.0080514917961177 0)
(1.0032998474757 -0.0086186231345654 0)
(1.0037734076111 -0.0091782997662153 0)
(1.0042768718478 -0.0097272771432931 0)
(1.0048132356579 -0.010268601805597 0)
(1.0053774006331 -0.010795209368964 0)
(1.0059762175862 -0.011315011326365 0)
(1.0065984945329 -0.011813159231102 0)
(1.0072598698656 -0.012309458705647 0)
(1.0079356151431 -0.012771334783553 0)
(1.008661319717 -0.013245465219381 0)
(1.009382117026 -0.013658227893988 0)
(1.010177798458 -0.014117557560066 0)
(1.0109279909918 -0.01445614463819 0)
(1.0118078485528 -0.014922488063487 0)
(1.0125587683615 -0.015136348871539 0)
(1.0135595055167 -0.015666371890845 0)
(1.0000006203541 -0.00035256439923329 0)
(1.0000355772048 -0.0010542809755429 0)
(1.0001024833414 -0.0017490524855468 0)
(1.0002020573575 -0.0024408053744478 0)
(1.0003345464728 -0.0031313503526525 0)
(1.0004997669908 -0.0038207620235549 0)
(1.0006974286627 -0.0045093084013277 0)
(1.0009277157202 -0.0051980049533956 0)
(1.0011910158701 -0.0058873471704726 0)
(1.0014881778752 -0.0065768911633068 0)
(1.00181954564 -0.0072645078460488 0)
(1.0021858305717 -0.0079481599024444 0)
(1.0025865246797 -0.0086250736523305 0)
(1.0030223418699 -0.0092947312517253 0)
(1.0034918336399 -0.0099549777270237 0)
(1.0039967235388 -0.010607473173985 0)
(1.004534091785 -0.011248385693762 0)
(1.00510803118 -0.011881668624766 0)
(1.0057121457275 -0.012498624267558 0)
(1.0063555676594 -0.013109172055664 0)
(1.0070240122095 -0.013694877077078 0)
(1.0077380578128 -0.01428045288217 0)
(1.008465848918 -0.014825371006992 0)
(1.0092539120688 -0.01538771450308 0)
(1.0100312483286 -0.015875780380505 0)
(1.0109018009413 -0.016423737141328 0)
(1.0117095580943 -0.016823370303061 0)
(1.0126821686143 -0.017383547120668 0)
(1.0134844484134 -0.017631734626441 0)
(1.0146078930176 -0.018274301580307 0)
(1.0000006499703 -0.00039910378656582 0)
(1.0000374299948 -0.0011929989995385 0)
(1.000107720818 -0.0019781949927165 0)
(1.0002122225294 -0.0027595035271295 0)
(1.0003511253336 -0.0035389402185594 0)
(1.0005241813579 -0.0043167957724938 0)
(1.0007310876469 -0.0050940903507416 0)
(1.0009721722806 -0.0058728605921298 0)
(1.001248026353 -0.0066542506411165 0)
(1.0015598187817 -0.0074378823315691 0)
(1.001908091974 -0.0082210313633054 0)
(1.0022938584648 -0.0090009753290337 0)
(1.0027166152671 -0.0097741521904342 0)
(1.0031774027744 -0.010539914167482 0)
(1.0036745663106 -0.011295770436903 0)
(1.0042104417314 -0.012043987096006 0)
(1.0047815618169 -0.012780115558219 0)
(1.0053932667141 -0.013509179105463 0)
(1.0060377632411 -0.01422065718652 0)
(1.0067267442975 -0.014926772099825 0)
(1.0074425499526 -0.015605037318207 0)
(1.0082112597564 -0.01628575454204 0)
(1.0089931932528 -0.016919377520428 0)
(1.0098469950965 -0.017576934417026 0)
(1.0106839251668 -0.018146189749651 0)
(1.0116345708412 -0.018791052668637 0)
(1.0125037810377 -0.019256892082478 0)
(1.0135768660638 -0.019920963150205 0)
(1.0144348122115 -0.020206211239572 0)
(1.015692493053 -0.020974790266844 0)
(1.0000006748922 -0.00044510300235137 0)
(1.0000390640211 -0.001329994911013 0)
(1.0001123210521 -0.0022042419434738 0)
(1.0002211215421 -0.0030736379521467 0)
(1.0003655949693 -0.003940399259559 0)
(1.0005454302305 -0.0048050966404164 0)
(1.0007603205709 -0.0056697014763375 0)
(1.0010107611391 -0.0065375146042613 0)
(1.0012975761212 -0.0074104929093355 0)
(1.0016222948162 -0.0082883698736017 0)
(1.0019856917373 -0.0091677593322381 0)
(1.0023891246613 -0.010045161403165 0)
(1.0028321203786 -0.010916130860037 0)
(1.0033160983009 -0.011779889339461 0)
(1.0038392119606 -0.012633608899242 0)
(1.0044044910996 -0.013480279865128 0)
(1.0050079146991 -0.014314815488474 0)
(1.005656209119 -0.015143477956964 0)
(1.0063401173576 -0.015953741382469 0)
(1.0070741422379 -0.01676043466308 0)
(1.0078370336633 -0.017536556901272 0)
(1.0086608582774 -0.018318690622665 0)
(1.0094975534821 -0.019047201421017 0)
(1.0104188899847 -0.019807628217981 0)
(1.0113170724545 -0.020464714303203 0)
(1.0123514282335 -0.021215700970897 0)
(1.0132848308872 -0.02175388751316 0)
(1.0144644539429 -0.02253315842472 0)
(1.0153817260293 -0.022859376213393 0)
(1.0167833369002 -0.023768951138043 0)
(1.0000006934919 -0.00049018119640532 0)
(1.0000403923854 -0.0014641377369142 0)
(1.0001160352943 -0.0024253330315766 0)
(1.0002282673831 -0.0033806340236543 0)
(1.0003771552129 -0.0043324537552631 0)
(1.0005623262215 -0.0052817074942844 0)
(1.0007834794376 -0.0062315142274334 0)
(1.0010412973558 -0.0071866766801666 0)
(1.0013368649172 -0.0081501281538217 0)
(1.0016721060065 -0.0091217629099335 0)
(1.0020480608675 -0.010097478444811 0)
(1.0024664705171 -0.011072914154142 0)
(1.0029269230867 -0.012042663317521 0)
(1.0034312616158 -0.013005818558738 0)
(1.0039774780544 -0.013959230343747 0)
(1.0045693619928 -0.014906723751318 0)
(1.0052023617787 -0.015842576909236 0)
(1.0058846974824 -0.016774444244978 0)
(1.0066056375375 -0.017687651168666 0)
(1.0073826796821 -0.01859990608699 0)
(1.0081908799101 -0.019479296656211 0)
(1.0090686389489 -0.020369301161282 0)
(1.009959178631 -0.021199264287324 0)
(1.0109481137393 -0.022070621259009 0)
(1.0119077118923 -0.022822849296161 0)
(1.013027573521 -0.023689875280832 0)
(1.0140265987695 -0.02430747153153 0)
(1.0153168861193 -0.025214315846616 0)
(1.016296372616 -0.025586669835903 0)
(1.017849504629 -0.026653477555153 0)
(1.0000007044456 -0.00053393331531424 0)
(1.0000413385286 -0.0015942258667712 0)
(1.0001186447483 -0.0026394950603203 0)
(1.0002332339757 -0.0036777631707183 0)
(1.0003851096258 -0.0047116355541866 0)
(1.000573838555 -0.0057424343168841 0)
(1.0007991352105 -0.0067746148671788 0)
(1.0010618838826 -0.0078147075744565 0)
(1.0013634562428 -0.0088667821914454 0)
(1.0017061940202 -0.0099309436825803 0)
(1.0020914397712 -0.011002334563368 0)
(1.0025213401714 -0.012075658694321 0)
(1.0029955925526 -0.013144493996086 0)
(1.0035164806251 -0.014207800160199 0)
(1.0040819048659 -0.015262153101084 0)
(1.0046964242856 -0.016312291909033 0)
(1.0053550622894 -0.017351923162138 0)
(1.006067527982 -0.018390177357221 0)
(1.0068217689984 -0.019410208808401 0)
(1.0076382379856 -0.020432734301818 0)
(1.008488537236 -0.02142076669715 0)
(1.0094172550473 -0.022424981140288 0)
(1.010359324847 -0.023363259450864 0)
(1.0114138526559 -0.024353630044861 0)
(1.0124337704469 -0.025209024716289 0)
(1.0136386607086 -0.026202234328223 0)
(1.014703570143 -0.026907369440442 0)
(1.0161063244098 -0.027954775341177 0)
(1.0171500119475 -0.028379917659013 0)
(1.0188594845844 -0.02962099156182 0)
(1.0000007066793 -0.00057595659837977 0)
(1.0000418405863 -0.0017190663532376 0)
(1.000119970997 -0.0028447710947824 0)
(1.0002356736726 -0.0039623187687368 0)
(1.000388891494 -0.0050745021979326 0)
(1.0005791304698 -0.0061831097976423 0)
(1.0008061292506 -0.0072941099684703 0)
(1.001070980563 -0.0084159693453377 0)
(1.001375366183 -0.0095540458887503 0)
(1.0017220547714 -0.010708705055322 0)
(1.0021127311635 -0.011874311312606 0)
(1.002549948346 -0.013044569048166 0)
(1.0030335824046 -0.014212012686072 0)
(1.0035663313994 -0.015375458409143 0)
(1.0041461366657 -0.016531292493937 0)
(1.0047782327395 -0.017685198822383 0)
(1.0054574818134 -0.018830470164671 0)
(1.0061948287339 -0.019977665852914 0)
(1.0069774362523 -0.021107970736006 0)
(1.0078280903791 -0.022244940099144 0)
(1.0087160802888 -0.023346824552196 0)
(1.0096906484658 -0.024471088125146 0)
(1.0106810904762 -0.025524961542009 0)
(1.0117960901705 -0.026641512836334 0)
(1.0128755848806 -0.02760995906135 0)
(1.0141599966379 -0.028737266049768 0)
(1.0152933398352 -0.02954188992069 0)
(1.0168037462654 -0.030740062904614 0)
(1.0179156775055 -0.031227668379981 0)
(1.0197846946006 -0.032661805988532 0)
(1.0000006997518 -0.00061587423394064 0)
(1.0000418562953 -0.0018375462704069 0)
(1.0001198912825 -0.0030393366040498 0)
(1.0002353449786 -0.0042317751751654 0)
(1.0003881003998 -0.0054178366886076 0)
(1.0005776032629 -0.0065998320047419 0)
(1.0008036234035 -0.0077854022405872 0)
(1.0010674654533 -0.0089851390968743 0)
(1.0013711349326 -0.010205826696075 0)
(1.0017178310727 -0.011448142724165 0)
(1.0021096066334 -0.012705660214403 0)
(1.0025494225455 -0.01397104148961 0)
(1.0030373831997 -0.015235758032725 0)
(1.0035765902024 -0.016498495446239 0)
(1.0041651235966 -0.017755520192268 0)
(1.0048088356366 -0.019013527528308 0)
(1.0055026347944 -0.02026551571323 0)
(1.0062585060466 -0.021523482793204 0)
(1.0070632891041 -0.02276682230238 0)
(1.0079415705554 -0.024021769323435 0)
(1.0088613214327 -0.02524220094124 0)
(1.0098752091279 -0.026491908483902 0)
(1.0109089142955 -0.027668197687473 0)
(1.0120780228462 -0.028918283914311 0)
(1.0132138975458 -0.030008982027589 0)
(1.0145709501239 -0.031278947559029 0)
(1.0157744469007 -0.032196335687359 0)
(1.0173811354689 -0.033551191655567 0)
(1.0185758839404 -0.034124458980945 0)
(1.0205907386146 -0.035759874347931 0)
(1.0000006829768 -0.000653349328799 0)
(1.0000413603056 -0.0019486704517511 0)
(1.0001183397469 -0.0032215644631277 0)
(1.0002321180372 -0.0044838849153059 0)
(1.0003825154248 -0.0057387805685219 0)
(1.0005689190313 -0.006989134513193 0)
(1.0007911336724 -0.0082443994210338 0)
(1.0010506767238 -0.0095174563516637 0)
(1.0013498797496 -0.010816636219179 0)
(1.0016923728064 -0.012142980818693 0)
(1.0020805843978 -0.013489268134609 0)
(1.0025178890995 -0.01484709652788 0)
(1.0030046408547 -0.016206865679951 0)
(1.0035443582782 -0.017567162261739 0)
(1.0041352997653 -0.01892419175923 0)
(1.0047839525793 -0.020285757446228 0)
(1.0054853374999 -0.021644635076673 0)
(1.0062524924014 -0.02301437077821 0)
(1.007072048384 -0.024372598200942 0)
(1.0079703786429 -0.025748350807582 0)
(1.008914344935 -0.027091133490979 0)
(1.0099599488687 -0.028471208866061 0)
(1.0110296233422 -0.029775890517228 0)
(1.012245637826 -0.031166823251941 0)
(1.0134313334804 -0.032387934247959 0)
(1.0148547529298 -0.033810578414152 0)
(1.0161232217404 -0.034850846966414 0)
(1.0178212773954 -0.036375279154477 0)
(1.0190962097865 -0.037046101370892 0)
(1.0212532732343 -0.038898692424237 0)
(1.0000006565299 -0.00068809541063846 0)
(1.0000403457157 -0.0020515937940595 0)
(1.000115296943 -0.0033900799306311 0)
(1.0002259534183 -0.0047167565696043 0)
(1.0003720682563 -0.0060349353007962 0)
(1.0005529715358 -0.007348112202731 0)
(1.0007685043852 -0.0086676666135604 0)
(1.0010203926065 -0.010008904363808 0)
(1.0013112856978 -0.011381804572532 0)
(1.0016452351201 -0.012787821121132 0)
(1.0020250405829 -0.014218944164887 0)
(1.0024544898183 -0.015665702314168 0)
(1.0029341952018 -0.017117431008752 0)
(1.0034681026486 -0.018572656291659 0)
(1.0040546716042 -0.020027587970803 0)
(1.0047010422575 -0.021491226760442 0)
(1.0054023873817 -0.022956211488086 0)
(1.0061728233062 -0.024437733214835 0)
(1.0069988405368 -0.025911734398385 0)
(1.0079086308826 -0.027410149755066 0)
(1.0088680653576 -0.028878160485433 0)
(1.0099364981511 -0.030392643582013 0)
(1.0110333309154 -0.031830885718993 0)
(1.0122874542828 -0.033369230463117 0)
(1.0135146005112 -0.034728401614144 0)
(1.0149961804092 -0.036313069472744 0)
(1.0163223778452 -0.0374863764479 0)
(1.0181048653113 -0.039192713994214 0)
(1.0194549788894 -0.039973424916165 0)
(1.0217482656405 -0.04205913614253 0)
(1.0000006207859 -0.00071988853384 0)
(1.0000388207919 -0.0021456593706379 0)
(1.0001107873142 -0.0035438200204346 0)
(1.0002168989615 -0.0049289314510507 0)
(1.0003568369964 -0.006304453547789 0)
(1.0005298754639 -0.0076745260954733 0)
(1.0007358900509 -0.0090525448296362 0)
(1.0009768046737 -0.010456344992421 0)
(1.0012555702172 -0.011897635027359 0)
(1.0015766400462 -0.013378323384083 0)
(1.0019431692364 -0.014889629010795 0)
(1.002359347792 -0.016421018548224 0)
(1.0028260456048 -0.017960785271341 0)
(1.0033476378584 -0.019507437851665 0)
(1.0039227965066 -0.021057259222366 0)
(1.004559322182 -0.022620530316435 0)
(1.0052525643157 -0.024189843720532 0)
(1.0060177307811 -0.025782126898066 0)
(1.0068412239434 -0.027371721586646 0)
(1.0077530737748 -0.028993560201807 0)
(1.0087182648541 -0.030588595009952 0)
(1.0097995174449 -0.032240433367914 0)
(1.0109134026195 -0.033816397468437 0)
(1.0121953839098 -0.035507710756355 0)
(1.0134539885752 -0.037011780019227 0)
(1.0149837157644 -0.038766973848852 0)
(1.0163584654327 -0.040082992099517 0)
(1.0182162642504 -0.041982903058711 0)
(1.0196342996878 -0.042886033082559 0)
(1.0220551033808 -0.045219501517212 0)
(1.000000576405 -0.00074857258971286 0)
(1.0000368085449 -0.0022304129501444 0)
(1.0001048767425 -0.0036820570165299 0)
(1.0002050836954 -0.0051194161318601 0)
(1.0003370346247 -0.0065460810131644 0)
(1.0004999477631 -0.0079668550705456 0)
(1.0006937291789 -0.0093972142749266 0)
(1.0009204836126 -0.010857595352233 0)
(1.0011834389827 -0.012361496449837 0)
(1.0014874205771 -0.013911315933781 0)
(1.0018359149795 -0.015497528296227 0)
(1.0022334924641 -0.017108556198963 0)
(1.0026812711375 -0.018731686709383 0)
(1.0031840447673 -0.020365453242914 0)
(1.0037407006515 -0.02200628407365 0)
(1.0043596921784 -0.02366581107865 0)
(1.0050365587108 -0.025336677548778 0)
(1.0057875940831 -0.027037628644255 0)
(1.006599150697 -0.028741517973013 0)
(1.0075030974842 -0.030486359329935 0)
(1.0084636164889 -0.032209015602935 0)
(1.009546795902 -0.033999908944657 0)
(1.0106665482831 -0.03571654770149 0)
(1.011964876132 -0.037565161677005 0)
(1.0132434914905 -0.03921989667397 0)
(1.0148097433936 -0.041153072975802 0)
(1.016222106497 -0.042620782127786 0)
(1.0181441556069 -0.044725066828465 0)
(1.0196206314877 -0.045762889330682 0)
(1.0221574165566 -0.048357088858688 0)
(1.0000005242446 -0.00077405772352053 0)
(1.0000343425267 -0.0023055988286281 0)
(1.0000976646235 -0.0038043947076593 0)
(1.0001907047102 -0.0052876828194412 0)
(1.0003129884577 -0.0067591622117808 0)
(1.0004636773717 -0.0082243060955283 0)
(1.0006427026556 -0.0097007095871295 0)
(1.0008523248134 -0.011211450414902 0)
(1.0010960190579 -0.012771858551928 0)
(1.0013789389873 -0.014384847052422 0)
(1.0017048757845 -0.016040184896175 0)
(1.0020787435385 -0.017725272495037 0)
(1.0025019012372 -0.01942644568178 0)
(1.0029795287334 -0.021142292038343 0)
(1.0035107341027 -0.022869467804453 0)
(1.0041045817005 -0.024620997246512 0)
(1.0047568209227 -0.026389689901149 0)
(1.0054847823866 -0.028196159673557 0)
(1.0062748192493 -0.030011924262939 0)
(1.0071605930824 -0.031878128658944 0)
(1.0081055762084 -0.033727746494716 0)
(1.0091791751 -0.035658051319437 0)
(1.0102928155067 -0.037516962335007 0)
(1.0115949178035 -0.039525817183391 0)
(1.0128808554088 -0.041335602444448 0)
(1.0144703934479 -0.043453038660216 0)
(1.0159079208812 -0.045080305427435 0)
(1.0178813106213 -0.047399242179923 0)
(1.0194050615396 -0.048583505938312 0)
(1.0220439210034 -0.051449944862885 0)
(1.0000004649169 -0.00079631419193407 0)
(1.0000314592771 -0.0023711395782256 0)
(1.0000892625077 -0.0039107326344222 0)
(1.0001739931957 -0.0054336214382096 0)
(1.0002850988223 -0.0069435899092806 0)
(1.0004216770779 -0.0084467701281042 0)
(1.0005836755854 -0.009962884825031 0)
(1.0007734738605 -0.011517653499225 0)
(1.0009947656242 -0.013128266791114 0)
(1.0012529720004 -0.014798166935774 0)
(1.0015521698515 -0.016516477464265 0)
(1.0018975535943 -0.01826958996787 0)
(1.0022907388597 -0.020042974569744 0)
(1.0027372132083 -0.021835263975436 0)
(1.0032363533209 -0.023643462262741 0)
(1.0037977068067 -0.025481953803677 0)
(1.0044173257293 -0.027343904803807 0)
(1.0051133927987 -0.029251739525587 0)
(1.0058724382548 -0.031175925436712 0)
(1.0067296664341 -0.033160631433265 0)
(1.0076481554786 -0.03513532281857 0)
(1.0087002233833 -0.037204007863096 0)
(1.0097954588139 -0.03920534079479 0)
(1.0110877620298 -0.041375969692483 0)
(1.0123677063921 -0.043343389778303 0)
(1.0139653881065 -0.045650101182376 0)
(1.0154142219171 -0.04744292063856 0)
(1.0174239629893 -0.049985847651799 0)
(1.0189817559089 -0.051328605816954 0)
(1.0217080383845 -0.054476973418857 0)
(1.0000003979604 -0.00081536820127461 0)
(1.0000281986125 -0.0024271210430871 0)
(1.0000797900294 -0.0040012253920237 0)
(1.0001551909275 -0.0055574511969557 0)
(1.0002537859674 -0.0070996586840507 0)
(1.0003746091162 -0.0086346302975984 0)
(1.0005176177238 -0.010184200152774 0)
(1.0006852472392 -0.011776678051255 0)
(1.0008813740527 -0.013431118617731 0)
(1.0011115982168 -0.015151488889681 0)
(1.0013802935348 -0.016926357090575 0)
(1.0016928312925 -0.018741103486962 0)
(1.0020511620639 -0.020580469564861 0)
(1.0024609073796 -0.022443047070285 0)
(1.0029218757817 -0.024326388816629 0)
(1.0034437683423 -0.026246044816795 0)
(1.0040232706031 -0.028195918524752 0)
(1.004678858433 -0.03019990495656 0)
(1.0053978958993 -0.032228070928564 0)
(1.0062161799294 -0.034327048126391 0)
(1.0070976138743 -0.036423679104658 0)
(1.0081157408038 -0.038628069772293 0)
(1.0091805879702 -0.040770373820372 0)
(1.0104485421207 -0.043102473653974 0)
(1.0117092346712 -0.045228231407624 0)
(1.0132985002421 -0.047726764777252 0)
(1.0147433220176 -0.049689052830214 0)
(1.016771767279 -0.052461118549478 0)
(1.0183472153315 -0.053973490211152 0)
(1.0211454436478 -0.057408607712625 0)
(1.000000319281 -0.00083131371160698 0)
(1.0000246243502 -0.0024738204947438 0)
(1.0000694374125 -0.0040763132582952 0)
(1.0001346527076 -0.0056597334441471 0)
(1.0002195938515 -0.0072280127168782 0)
(1.0003232478175 -0.0087885727980145 0)
(1.000445610701 -0.01036533948392 0)
(1.0005891078675 -0.011989150151284 0)
(1.0007577479729 -0.013680923646004 0)
(1.0009571706071 -0.0154451282349 0)
(1.0011920831091 -0.017269873612036 0)
(1.0014678791922 -0.019139489648739 0)
(1.0017870265418 -0.021038165161553 0)
(1.0021549774951 -0.022964256773478 0)
(1.0025723435862 -0.024916182414478 0)
(1.0030482969965 -0.026910227701545 0)
(1.003580963531 -0.02894172639263 0)
(1.0041877749059 -0.031035189521396 0)
(1.0048586921939 -0.033161627027456 0)
(1.0056275262274 -0.035368538509455 0)
(1.006462499014 -0.037582367959425 0)
(1.007433528549 -0.039916856565326 0)
(1.0084574582274 -0.042196691714447 0)
(1.0096848443989 -0.044686133367626 0)
(1.0109150879824 -0.046968534367001 0)
(1.0124766445331 -0.049657479653423 0)
(1.013906369801 -0.051788604199485 0)
(1.0159283700797 -0.054791412855656 0)
(1.0175098242204 -0.056470712788149 0)
(1.0203489886947 -0.060191854044232 0)
(1.0000002238485 -0.00084437635817667 0)
(1.0000208726934 -0.00251191478241 0)
(1.0000585584182 -0.0041370098707934 0)
(1.0001130059923 -0.0057417814386822 0)
(1.0001834674924 -0.0073302948978185 0)
(1.0002688907263 -0.00891050747812 0)
(1.0003693063343 -0.010508285502912 0)
(1.0004870566232 -0.012156887553993 0)
(1.0006262451661 -0.01387917213838 0)
(1.0007924270044 -0.015680187881481 0)
(1.0009907156584 -0.017547765873424 0)
(1.0012263773549 -0.019465181621639 0)
(1.0015026322921 -0.021416227185261 0)
(1.0018243773652 -0.023398709413756 0)
(1.0021935219671 -0.025412234514194 0)
(1.0026177401107 -0.027473200052294 0)
(1.0030978779295 -0.029579375728045 0)
(1.0036481520339 -0.031754538133054 0)
(1.004264279899 -0.033972884445106 0)
(1.0049731829348 -0.036279681085438 0)
(1.0057545663373 -0.038605459688102 0)
(1.0066640617568 -0.041061562434603 0)
(1.0076404435246 -0.043475201716581 0)
(1.0088068052115 -0.046113654123949 0)
(1.0100025567823 -0.048550419215771 0)
(1.0115072506668 -0.051425651430733 0)
(1.0129274105909 -0.05372174893565 0)
(1.0149007221149 -0.056966226121867 0)
(1.0165115477285 -0.058786709724361 0)
(1.019326700351 -0.062854424894894 0)
(1.0000000841855 -0.00085502969967132 0)
(1.0000171428408 -0.002543008982821 0)
(1.0000476256617 -0.0041858485227946 0)
(1.0000908557396 -0.00580704809347 0)
(1.0001461779745 -0.0074111332407918 0)
(1.0002127078127 -0.009006595385963 0)
(1.0002904234892 -0.010620982509494 0)
(1.0003813033465 -0.012289680842884 0)
(1.0004893455138 -0.014037435467738 0)
(1.0006198929108 -0.015870096980846 0)
(1.0007787097351 -0.017775370319064 0)
(1.0009710316696 -0.019735695894447 0)
(1.0012010242785 -0.021734752187984 0)
(1.0014728637849 -0.02376964259967 0)
(1.001789876168 -0.025841529767979 0)
(1.0021575328843 -0.027966359747114 0)
(1.0025800989864 -0.030145540895976 0)
(1.0030669478253 -0.032400702460424 0)
(1.0036221900402 -0.034712429751814 0)
(1.0042613222386 -0.037119574032901 0)
(1.004982986535 -0.0395644248647 0)
(1.0058160972627 -0.042144986895045 0)
(1.0067407874539 -0.044708533554894 0)
(1.0078214953338 -0.047501651574282 0)
(1.0089853552912 -0.05012088452724 0)
(1.0103888927821 -0.053196862418672 0)
(1.0118221443322 -0.055694008353331 0)
(1.0136712379458 -0.059236463079848 0)
(1.0154049114701 -0.061219174214224 0)
(1.0180988491269 -0.065935614679159 0)
(0.99999977272642 -0.00086474296898203 0)
(1.0000127630472 -0.0025716166250338 0)
(1.0000360027837 -0.0042313919408076 0)
(1.0000675109107 -0.0058692437733209 0)
(1.0001069610759 -0.0074898978434099 0)
(1.0001541329777 -0.0091022521657249 0)
(1.0002092019174 -0.010735655601969 0)
(1.0002736267727 -0.012427840713291 0)
(1.0003510141374 -0.01420574170843 0)
(1.0004465915008 -0.016075306576241 0)
(1.0005659071105 -0.018024320037592 0)
(1.0007143215788 -0.020034169176175 0)
(1.0008968640019 -0.022088338121545 0)
(1.0011174461058 -0.024183431207999 0)
(1.0013805197619 -0.026322703009383 0)
(1.0016900482081 -0.028521951246338 0)
(1.0020526984915 -0.030787012300566 0)
(1.0024742266519 -0.033136616886233 0)
(1.0029652473331 -0.035559770062092 0)
(1.0035324863328 -0.038084968071641 0)