# Force coefficients  
# dragDir             : (1.00000000000000e+00 0.00000000000000e+00 0.00000000000000e+00)
# sideDir             : (0.00000000000000e+00 0.00000000000000e+00 -1.00000000000000e+00)
# liftDir             : (0.00000000000000e+00 1.00000000000000e+00 0.00000000000000e+00)
# rollAxis            : (1.00000000000000e+00 0.00000000000000e+00 0.00000000000000e+00)
# pitchAxis           : (0.00000000000000e+00 0.00000000000000e+00 -1.00000000000000e+00)
# yawAxis             : (0.00000000000000e+00 1.00000000000000e+00 0.00000000000000e+00)
# magUInf             : 1.00000000000000e+00
# lRef                : 1.00000000000000e+00
# Aref                : 1.00000000000000e+00
# CofR                : (0.00000000000000e+00 0.00000000000000e+00 0.00000000000000e+00)
#
# Time                	Cd                    	Cs                    	Cl                    	CmRoll                	CmPitch               	CmYaw                 	Cd(f)                 	Cd(r)                 	Cs(f)                 	Cs(r)                 	Cl(f)                 	Cl(r)                 
3.705                 	2.85078589268230e+00	2.79010943241230e-20	-8.17959019266444e-02	-2.05336689345861e-19	2.10549972933808e+01	1.52614531923745e-19	1.42539294634115e+00	1.42539294634115e+00	1.66565079085806e-19	-1.38663984761683e-19	2.10140993424175e+01	-2.10958952443441e+01
3.71                  	2.85699923778320e+00	2.78608052716952e-20	-7.61502697451819e-02	-2.05034143345732e-19	2.10748031348385e+01	1.52419319096203e-19	1.42849961889160e+00	1.42849961889160e+00	1.66349721732050e-19	-1.38488916460355e-19	2.10367279999659e+01	-2.11128782697110e+01
3.715                 	2.86463636665622e+00	2.78983474534255e-20	-7.10744635009377e-02	-2.05305367550635e-19	2.11081280960414e+01	1.52631817750868e-19	1.43231818332811e+00	1.43231818332811e+00	1.66580991477581e-19	-1.38682644024155e-19	2.10725908642909e+01	-2.11436653277919e+01
3.72                  	2.87222371700442e+00	2.79322225064530e-20	-6.57417211408845e-02	-2.05551687751181e-19	2.11397867896442e+01	1.52828072458803e-19	1.43611185850221e+00	1.43611185850221e+00	1.66794183712029e-19	-1.38861961205576e-19	2.11069159290737e+01	-2.11726576502146e+01
3.725                 	2.88006797232501e+00	2.79765098518072e-20	-6.04087877643213e-02	-2.05873059381827e-19	2.11733626527250e+01	1.53074469859188e-19	1.44003398616250e+00	1.44003398616250e+00	1.67062724785091e-19	-1.39086214933284e-19	2.11431582588428e+01	-2.12035670466071e+01
3.73                  	2.88775372523565e+00	2.80136572391638e-20	-5.47761555737500e-02	-2.06142637953100e-19	2.12042423402751e+01	1.53286131733565e-19	1.44387686261783e+00	1.44387686261783e+00	1.67292960353147e-19	-1.39279303113983e-19	2.11768542624883e+01	-2.12316304180620e+01
3.735                 	2.89567413669286e+00	2.80545543373470e-20	-4.91338394117010e-02	-2.06439275334263e-19	2.12368245364055e+01	1.53516678157952e-19	1.44783706834643e+00	1.44783706834643e+00	1.67543955326625e-19	-1.39489400989278e-19	2.12122576166997e+01	-2.12613914561114e+01
3.74                  	2.90346655053994e+00	2.80967298672541e-20	-4.35459620025367e-02	-2.06745450552236e-19	2.12687099152046e+01	1.53752781690479e-19	1.45173327526997e+00	1.45173327526997e+00	1.67801146624106e-19	-1.39704416756852e-19	2.12469369342033e+01	-2.12904828962059e+01
3.745                 	2.91145024607351e+00	2.81402711331990e-20	-3.78926094116602e-02	-2.07061533573505e-19	2.13016935235594e+01	1.53996191906766e-19	1.45572512303676e+00	1.45572512303676e+00	1.68066327473365e-19	-1.39926056340166e-19	2.12827472188536e+01	-2.13206398282652e+01
3.75                  	2.91935726580379e+00	2.81833901222930e-20	-3.22713694590951e-02	-2.07374402936243e-19	2.13342537053949e+01	1.54237243685943e-19	1.45967863290190e+00	1.45967863290190e+00	1.68328938747090e-19	-1.40145548624797e-19	2.13181180206654e+01	-2.13503893901245e+01
3.755                 	2.92734470632450e+00	2.82249722660616e-20	-2.65920988918635e-02	-2.07676556904201e-19	2.13671180423237e+01	1.54470817302891e-19	1.46367235316225e+00	1.46367235316225e+00	1.68583303435922e-19	-1.40358331169860e-19	2.13538219928778e+01	-2.13804140917696e+01
3.76                  	2.93532861709662e+00	2.82694222320717e-20	-2.08621332749118e-02	-2.07999120268163e-19	2.13996937212196e+01	1.54718276053243e-19	1.46766430854831e+00	1.46766430854831e+00	1.68852987169279e-19	-1.40583564937207e-19	2.13892626545822e+01	-2.14101247878571e+01
3.765                 	2.94328393374053e+00	2.83099604121020e-20	-1.50673615886061e-02	-2.08293914252054e-19	2.14317222944128e+01	1.54946581129844e-19	1.47164196687026e+00	1.47164196687026e+00	1.69101561335895e-19	-1.40791600923793e-19	2.14241886136185e+01	-2.14392559752071e+01
3.77                  	2.95131682490232e+00	2.83547236779746e-20	-9.35463441305751e-03	-2.08618290683569e-19	2.14647344348890e+01	1.55195067003637e-19	1.47565841245116e+00	1.47565841245116e+00	1.69372428842624e-19	-1.41017705164649e-19	2.14600571176825e+01	-2.14694117520955e+01
3.775                 	2.95929721614500e+00	2.83947678716552e-20	-3.57479327670174e-03	-2.08909575692335e-19	2.14970088752428e+01	1.55421428887149e-19	1.47964860807250e+00	1.47964860807250e+00	1.69618812822977e-19	-1.41224044951322e-19	2.14952214786044e+01	-2.14987962718811e+01
3.78                  	2.96734099063407e+00	2.84421620679468e-20	2.22359183012932e-03	-2.09253370252626e-19	2.15296577386338e+01	1.55682935724792e-19	1.48367049531704e+00	1.48367049531704e+00	1.69904016758766e-19	-1.41461854690819e-19	2.15307695345489e+01	-2.15285459427187e+01
3.785                 	2.97526616259343e+00	2.84792575085238e-20	8.09587250463334e-03	-2.09523587604782e-19	2.15610394091039e+01	1.55895049498645e-19	1.48763308129671e+00	1.48763308129671e+00	1.70134678252906e-19	-1.41655420744383e-19	2.15650873453562e+01	-2.15569914728516e+01
3.79                  	2.98337115736043e+00	2.85252794185240e-20	1.38480444530886e-02	-2.09857348223596e-19	2.15943622462666e+01	1.56150231483306e-19	1.49168557868022e+00	1.49168557868022e+00	1.70412871192568e-19	-1.41887591774044e-19	2.16012862684932e+01	-2.15874382240401e+01
3.795                 	2.99135955984175e+00	2.85642949171491e-20	1.97742035142147e-02	-2.10141483871188e-19	2.16259327413741e+01	1.56371447214418e-19	1.49567977992087e+00	1.49567977992087e+00	1.70653594672993e-19	-1.42089299755844e-19	2.16358198431312e+01	-2.16160456396170e+01
3.8                   	2.99946627298494e+00	2.86119109038007e-20	2.55756474005218e-02	-2.10486862981071e-19	2.16590063041309e+01	1.56633340452672e-19	1.49973313649247e+00	1.49973313649247e+00	1.70939295904572e-19	-1.42327385000771e-19	2.16717941278311e+01	-2.16462184804306e+01
3.805                 	3.00759855298544e+00	2.86518213482811e-20	3.14564399556939e-02	-2.10777520226416e-19	2.16918671149227e+01	1.56859143235308e-19	1.50379927649272e+00	1.50379927649272e+00	1.71185053909449e-19	-1.42533232561167e-19	2.17075953349005e+01	-2.16761388949448e+01
3.81                  	3.01566770496192e+00	2.86981769582481e-20	3.73252055606982e-02	-2.11114081003528e-19	2.17243069490864e+01	1.57115073796399e-19	1.50783385248096e+00	1.50783385248096e+00	1.71464162275523e-19	-1.42765985317275e-19	2.17429695518668e+01	-2.17056443463061e+01
