/*--------------------------------*- C++ -*----------------------------------*\
| =========                 |                                                 |
| \\      /  F ield         | OpenFOAM: The Open Source CFD Toolbox           |
|  \\    /   O peration     | Version:  2112                                  |
|   \\  /    A nd           | Website:  www.openfoam.com                      |
|    \\/     M anipulation  |                                                 |
\*---------------------------------------------------------------------------*/
FoamFile
{
    version     2.0;
    format      ascii;
    arch        "LSB;label=32;scalar=64";
    class       surfaceScalarField;
    location    "3.5";
    object      phi;
}
// * * * * * * * * * * * * * * * * * * * * * * * * * * * * * * * * * * * * * //

dimensions      [0 3 -1 0 0 0 0];

oriented        oriented;

internalField   nonuniform List<scalar> 
43645
(
0.39512524553929
-6.3725086280546e-06
0.3951438092961
-1.8563796002359e-05
0.39517414134598
-3.0332092250904e-05
0.39521584354181
-4.1702239748424e-05
0.39526850861983
-5.2665122339514e-05
0.39533173165264
-6.3223077068052e-05
0.39540518727664
-7.3455667825381e-05
0.39548869587636
-8.3508643137925e-05
0.39558221475665
-9.3518923170694e-05
0.39568576779478
-0.00010355308060684
0.39579934619279
-0.00011357843997241
0.39592283102983
-0.00012348487864743
0.39605593781439
-0.0001331068256626
0.39619823692018
-0.00014229914658569
0.39634918319158
-0.00015094631167558
0.39650820577279
-0.0001590226211814
0.39667467701483
-0.00016647128148559
0.39684799330334
-0.00017331632768185
0.39702746205458
-0.00017946878985614
0.3972125519237
-0.00018508990747098
0.39740264567454
-0.00019009378862085
0.39759750494009
-0.00019485930306052
0.39779648688784
-0.00019898198467134
0.39799946130389
-0.00020297445269625
0.39820515426033
-0.00020569299245378
0.39841350979377
-0.00020835556916106
0.39862253261615
-0.00020902285743581
0.39883353575831
-0.00021100317645272
0.39904429830391
-0.00021076257851145
-0.00021526672554517
0.39925956499642
0.37294852499008
-1.2342813459541e-05
0.37296607102203
-3.6109887370725e-05
0.37299491194042
-5.9173071226261e-05
0.37303469035067
-8.1480710797099e-05
0.3730850299677
-0.00010300479972487
0.37314555316505
-0.00012374633424797
0.37321596036212
-0.0001438629239877
0.37329610030481
-0.00016364864434847
0.37338595961096
-0.0001833782871319
0.37348558634786
-0.00020317987482278
0.37359498987834
-0.00022298202707993
0.37371407208112
-0.00024256713761955
0.3738425779353
-0.00026161273535223
0.37398010603386
-0.0002798273002729
0.37412612408648
-0.00029696441875478
0.37428006173503
-0.00031296032384829
0.37444130167504
-0.00032771127496287
0.37460926698097
-0.00034128168678937
0.37478329224537
-0.00035349410680119
0.37496284177776
-0.00036463949214976
0.37514726924134
-0.00037452130385518
0.37533630421153
-0.0003838943246778
0.37552931529004
-0.00039199311394674
0.37572621395461
-0.00039987316781461
0.37592578308997
-0.0004052621776583
0.37612796588303
-0.00041053841183048
0.3763307165885
-0.00041177361176682
0.37653523789675
-0.00041552453266918
0.37673925527154
-0.00041477999891927
-0.00042353001777324
0.37694751851728
0.35201676624711
-1.8211598668015e-05
0.35203394350084
-5.3287207090141e-05
0.3520621133853
-8.7343022035357e-05
0.35210095796779
-0.00012032535933461
0.35215013917016
-0.00015218606732228
0.35220931182385
-0.00018291905246245
0.35227820655892
-0.00021275772266485
0.35235670344542
-0.00024214559383763
0.35244482126241
-0.00027149616625343
0.35254263775018
-0.00030099642419665
0.35265018968509
-0.00033053402271985
0.35276740768976
-0.00035978520252145
0.35289406702104
-0.00038827212598739
0.353029794857
-0.0004155551951124
0.35317407926572
-0.0004412488854396
0.35332635993475
-0.00046524105041706
0.353486019442
-0.00048737083883514
0.35365248117534
-0.00050774347637224
0.35382507638755
-0.00052608937433129
0.35400327068431
-0.00054283384390168
0.35418640475822
-0.00055765543181877
0.35437421414517
-0.00057170376538413
0.35456605086944
-0.00058382989104074
0.35476186677868
-0.00059568912958146
0.35496041161797
-0.00060380706852484
0.35516170411478
-0.00061183095995106
0.3553635573742
-0.00061362692153675
0.35556728320822
-0.00061925041613353
0.35577024201793
-0.00061773885545543
-0.00063071349162481
0.35597742544367
0.33225979798657
-2.3965679955221e-05
0.3322766693604
-7.0158638665101e-05
0.33230436720589
-0.00011504092585352
0.33234260568942
-0.00015856390108772
0.3323910810899
-0.00020066152535074
0.33244948378519
-0.00024132180468602
0.33251758117867
-0.00028085517220321
0.33259529185894
-0.00031985632957449
0.33268267421181
-0.00035887857368305
0.33277984614107
-0.00039816840746822
0.33288688241918
-0.00043757035392144
0.33300374668253
-0.00047664951846006
0.33313024087344
-0.00051476636854574
0.33326601520071
-0.00055132957356876
0.33341057557901
-0.00058580931400352
0.3335633742868
-0.0006180398080881
0.33372379568509
-0.00064779228611646
0.33389126240223
-0.00067521024220895
0.33406509762018
-0.00069992464013262
0.33424477051373
-0.00072250678508507
0.3344296090136
-0.00074249397851299
0.33461936072397
-0.00076145552244039
0.33481334199092
-0.0007778112038699
0.3350115481605
-0.00079389534498979
0.33521265698681
-0.00080491593986224
0.33541680637307
-0.00081598039123644
0.33562161527566
-0.00081843586838202
0.33582862058388
-0.0008262557680311
0.33603470366949
-0.00082382198253547
-0.00084139869911929
0.33624538883398
0.31361171477993
-2.9623133101391e-05
0.31362833869927
-8.6782614246727e-05
0.31365567058763
-0.00014237287102497
0.3136934650157
-0.00019635838587419
0.31374145667241
-0.00024865323806004
0.31379937360183
-0.00029923878947992
0.31386702372942
-0.0003485053542224
0.31394437140616
-0.00039720406008894
0.31403152645712
-0.00044603367741497
0.31412866121628
-0.00049530321877407
0.31423590103967
-0.00054481022838244
0.31435325265258
-0.00059400118183948
0.3144805528535
-0.00064206661883832
0.31461748190314
-0.00068825867200994
0.31476356566009
-0.00073189311868755
0.31491826503706
-0.00077273923230527
0.31508095445519
-0.00081048175046512
0.31525104479751
-0.00084530063037948
0.31542783884399
-0.00087671873150149
0.31561080241831
-0.00090547040405928
0.31579923988153
-0.00093093148550001
0.31599290957727
-0.00095512526183877
0.31619109575644
-0.00097599742587977
0.31639385034414
-0.00099664997557081
0.31659978741628
-0.0010108530541555
0.31680916665535
-0.0010253596726109
0.31701938140525
-0.0010286506599732
0.31723222895733
-0.0010391033614376
0.31744401865348
-0.0010356117180959
-0.00105838190923
0.3176610018222
0.29601026094031
-3.5182266215868e-05
0.29602663610464
-0.00010315783435024
0.29605360394384
-0.00016934076650133
0.29609096553605
-0.00023372003418028
0.29613850053253
-0.00029618828980996
0.29619598089259
-0.0003567192041157
0.29626325980255
-0.00041578431768382
0.29634035305302
-0.00047429736330406
0.29642742847131
-0.00053310914730318
0.29652471865979
-0.00059259345808765
0.29663240432138
-0.0006524959395899
0.29675054019505
-0.0007121371043849
0.2968790026823
-0.00077052915371905
0.29701750780369
-0.00082676384037276
0.29716560940794
-0.0008799947686812
0.29732279160039
-0.00092992146995778
0.29748843440768
-0.00097612460180745
0.29766195205149
-0.0010188183178548
0.29784263372438
-0.0010574004470233
0.2980299530698
-0.0010927897918966
0.29822320130429
-0.0011241797615093
0.29842215938666
-0.0011540833856964
0.29862607837155
-0.0011799164514974
0.29883504352248
-0.0012056151674099
0.29904760069699
-0.0012234102689376
0.29926411974542
-0.0012418787616757
0.29948183110812
-0.0012463620628353
0.29970283834855
-0.0012601106418958
0.29992286605617
-0.001255639464056
-0.0012844478924205
0.30014893199859
0.27939667615127
-4.0623951207815e-05
0.27941275058426
-0.00011923232404145
0.27943927244572
-0.00019586268508221
0.27947609339055
-0.00027054103588968
0.27952304192906
-0.00034313688430351
0.27957993725539
-0.00041361458567333
0.27964668433539
-0.00048253145174641
0.27972335788623
-0.00055097096737406
0.27981019041534
-0.00061994172834983
0.27990748307871
-0.00068988617254858
0.28001548422261
-0.00076049713318532
0.28013430936436
-0.0008309622949884
0.28026388383687
-0.00090010367367315
0.28040396451173
-0.00096684456188831
0.28055413636843
-0.0010301666706564
0.28071390686356
-0.001089692009729
0.28088265940135
-0.0011448771829436
0.28105980491967
-0.0011959638790696
0.28124461676002
-0.0012422123291223
0.28143657966945
-0.0012847527428381
0.28163498086623
-0.001322580998812
0.28183963659795
-0.001358739157952
0.28204975149803
-0.0013900313913252
0.28226546329171
-0.0014213270010802
0.2824852188602
-0.0014431658768025
0.28270959635595
-0.0014662562972851
0.28293565228976
-0.0014724180360635
0.2831659470351
-0.0014904054266486
0.28339549516163
-0.001485187628405
-0.0015211671918316
0.28363221442044
0.26371550183858
-4.5916394041091e-05
0.2637311854551
-0.00013491599777636
0.26375711552385
-0.00022179281137002
0.26379319780368
-0.0003066233729822
0.26383931338733
-0.00038925252423603
0.26389533485443
-0.00046963610824721
0.26396122355795
-0.00054842020947656
0.26403711750585
-0.00062686496858016
0.26412331944286
-0.00070614371725432
0.26422020339451
-0.00078677017515571
0.26432808597188
-0.00086837975999256
0.26444714410347
-0.00095002047507781
0.26457735655543
-0.0010303161725834
0.26471852984275
-0.0011080178953218
0.26487029163818
-0.0011819285106789
0.26503218704466
-0.0012515874601051
0.26520362181378
-0.0013163119945744
0.26538402645873
-0.0013763685660497
0.2655726808234
-0.0014308667345851
0.26576909416023
-0.0014811661202419
0.26597255683519
-0.0015260437133007
0.26618292716014
-0.0015691095224749
0.26639938261767
-0.0016064868876105
0.26662214331056
-0.0016440877330345
0.26684957321936
-0.0016705958240427
0.26708243314384
-0.0016991162607472
0.26731763240311
-0.00170761733387
0.26755795848943
-0.0017307315515459
0.26779800438404
-0.001725233560046
-0.0017697839674853
0.26804662111962
0.24891439546813
-5.1019227200012e-05
0.24892957106226
-0.00015009164987143
0.24895471794648
-0.00024693975382067
0.24898979931467
-0.00034170479907767
0.24903475339504
-0.00043420666149121
0.24908950794086
-0.00052439071011558
0.2491540826274
-0.00061299495073026
0.24922868161702
-0.00070146401197356
0.24931368086153
-0.00079114301402394
0.24940953071755
-0.00088262008244428
0.24951662228391
-0.00097547137598727
0.24963520398701
-0.0010686022268069
0.24976531947145
-0.0011604317039974
0.24990683399313
-0.0012495324630494
0.25005942241611
-0.001334516978095
0.25022267367588
-0.0014148387635509
0.25039602459724
-0.0014896629581182
0.25057893896766
-0.0015592829781392
0.25077070702728
-0.0016226348345354
0.2509708674636
-0.0016813265966549
0.25117871646779
-0.0017338927564604
0.25139417875192
-0.0017845718456062
0.25161644053754
-0.0018287487113243
0.25184581396729
-0.0018734612011999
0.25208062435296
-0.0019054062474344
0.25232167065702
-0.0019401626030555
0.25256599274746
-0.0019519394620253
0.25281602529833
-0.0019807641401529
0.25306694178422
-0.0019761500820983
-0.0020309519508744
0.25332810972822
0.23494395610332
-5.5887825875538e-05
0.2349584925896
-0.00016462819442919
0.23498264066743
-0.00027108789013588
0.23501642242243
-0.00037548661221497
0.23505983389574
-0.00047761819187572
0.23511286149848
-0.00057741836910078
0.23517558707541
-0.00067572058251392
0.2352482840755
-0.00077416106597025
0.23533140318034
-0.00087426217119104
0.23542547114948
-0.00097668810290076
0.23553095360382
-0.0010809538799343
0.23564817059776
-0.0011858192693253
0.23577723232645
-0.0012894934795271
0.23591806732333
-0.0013903675058323
0.23607040789189
-0.0014868575908672
0.23623389975154
-0.0015783306666472
0.2364080265771
-0.0016637898255562
0.23659230008031
-0.0017435565226993
0.23678603912546
-0.0018163739196383
0.23698883526498
-0.0018841227758734
0.23720000873368
-0.0019450662636776
0.23741957854697
-0.0020041416974312
0.2376467314029
-0.0020559016048021
0.23788190626019
-0.0021086360963405
0.23812337576021
-0.0021468757845091
0.23837204442185
-0.002188831302232
0.23862507659505
-0.0022049716721031
0.23888465929452
-0.0022403468764477
0.2391466985572
-0.0022381893799625
-0.002304639509831
0.23942038607769
0.22175755832119
-6.0476412556859e-05
0.22177131964343
-0.00017838957505937
0.2217942446179
-0.00029401292316706
0.22182641497029
-0.0004076570228128
0.22186788594464
-0.00051908922335408
0.22191870341334
-0.00062823589410986
0.22197901191395
-0.00073602913802544
0.22204915205434
-0.00084430126031718
0.22212964655395
-0.000954756723144
0.222221097206
-0.0010681388062755
0.22232404350996
-0.0011839002334669
0.22243887756573
-0.001300653373645
0.22256578067286
-0.0014163966334035
0.22270475373817
-0.0015293406169577
0.22285559877754
-0.0016377026742955
0.2230180276364
-0.0017407595688187
0.22319158017052
-0.0018373424013504
0.22337582699446
-0.001927803387796
0.22357013858679
-0.0020106855516759
0.22377418127897
-0.0020881655074914
0.22398731691984
-0.0021582019427355
0.22420966048027
-0.0022264852960665
0.22444039902936
-0.0022866401910316
0.22468012616922
-0.0023483632736036
0.22492710106824
-0.0023938507200191
0.22518244052707
-0.0024441707979777
0.22544332905625
-0.0024658602373931
0.22571212732035
-0.0025091451765149
0.22598459136256
-0.0025106534563823
-0.0025902038346591
0.22627015564988
0.20931119673125
-6.4741249024853e-05
0.20932405151605
-0.0001912444179709
0.20934553722489
-0.00031549869024164
0.20937579374759
-0.00043791360341728
0.20941493442881
-0.00055822996141808
0.20946306378214
-0.00067636530349255
0.20952038684212
-0.00079335225265655
0.2095873090001
-0.00091122347203284
0.20966442227448
-0.001031870049656
0.2097524001487
-0.0011561167316178
0.20985185346584
-0.0012833535999642
0.20996324507218
-0.0014120450283504
0.21008682791065
-0.0015399795184276
0.21022267840022
-0.0016651911521636
0.21037067373142
-0.0017856980493834
0.21053059987364
-0.0019006857541816
0.21070206269902
-0.0020088052682395
0.21088470639169
-0.0021104471214659
0.21107797118102
-0.0022039503805239
0.21128161675317
-0.0022918111189139
0.2114950670719
-0.0023716522994395
0.21171853949166
-0.0024499577538011
0.21195125118719
-0.0025193519234181
0.21219394790025
-0.0025910600237218
0.21244493656696
-0.0026448394227925
0.21270555003586
-0.0027047843032672
0.21297301073904
-0.0027333209760114
0.21324995915016
-0.0027860936227869
0.21353178182773
-0.0027924761672336
-0.0028870092475295
0.21382858720407
0.19756334026246
-6.8645036129312e-05
0.19757516850167
-0.0002030727147077
0.19759501902236
-0.00033534926858129
0.19762308608625
-0.00046598072465666
0.19765953790061
-0.00059468183208801
0.19770453525753
-0.00072136271597856
0.19775834145686
-0.00084715850619929
0.19782142247016
-0.00097430453865596
0.1978944335226
-0.0011048811538412
0.19797811264621
-0.0012397959059917
0.19807313588294
-0.0013783768857408
0.19818003211999
-0.0015189413134621
0.19829912467512
-0.0016590721198371
0.19843056637585
-0.0017966328983085
0.19857431416981
-0.0019294458870149
0.19873023522368
-0.0020566068510098
0.19889801205423
-0.0021765821401381
0.19907737476562
-0.0022898098737145
0.19926784700279
-0.0023944226570986
0.19946929583296
-0.0024932599882383
0.1996812267894
-0.0025835832937331
0.19990397476118
-0.0026727057634149
0.20013681835267
-0.0027521955515932
0.20038065825234
-0.0028348999602401
0.20063388512726
-0.0028980663334948
0.20089805562064
-0.0029689548326517
0.20117044047899
-0.0030057058692857
0.20145403364065
-0.0030696868189417
0.20174392397176
-0.0030823665308416
-0.0031939417470415
0.20205085643561
0.18647478960489
-7.2157324778703e-05
0.18648549198826
-0.00021377515473496
0.18650354300537
-0.00035340034248571
0.18652918636745
-0.00049162414326392
0.18656264119911
-0.00062813671928678
0.18660412073394
-0.00076284230566229
0.18665394207978
-0.00089697990559026
0.18671262512277
-0.0010329876343632
0.18678087984127
-0.0011731359235148
0.18685949929002
-0.0013184154050009
0.18694921716254
-0.0014680948068408
0.18705062264185
-0.0016203468404198
0.1871641073241
-0.0017725568480148
0.18728989838278
-0.0019224240020764
0.18742803511858
-0.0020675826662308
0.18757846879316
-0.0022070405683315
0.18774096827429
-0.0023390816624515
0.18791535769217
-0.002464199332328
0.18810125610346
-0.0025803211076965
0.1882986467749
-0.0026906506987552
0.18850713176954
-0.0027920683261692
0.18872717606052
-0.002892750092176
0.18895814500421
-0.0029831645318965
0.1892011035744
-0.0030778585671655
0.18945455587514
-0.0031515186698394
0.18972029827672
-0.003234697269972
0.18999566821028
-0.0032810758373773
0.19028404645793
-0.0033580651005365
0.19058035083109
-0.0033786709358151
-0.0035094048842462
0.19089581393346
0.17600854683078
-7.5255448201204e-05
0.17601805056806
-0.00022327894759507
0.17603417683322
-0.00036952666337529
0.17605721389064
-0.0005146612562001
0.17608742679085
-0.00065834967407898
0.17612507620754
-0.00080049177630444
0.17617052697499
-0.00094243072574748
0.17622434511828
-0.0010868058295831
0.17628728580121
-0.0012360766568949
0.17636018647374
-0.0013913161271168
0.176443829083
-0.0015517374640621
0.17653885510393
-0.001715372908445
0.1766457191359
-0.0018794209254152
0.17676471749361
-0.0020414224044364
0.17689597172633
-0.0021988369419987
0.17703951564332
-0.00235058452775
0.1771952123104
-0.0024947783704712
0.1773629815875
-0.0026319686499542
0.1775425498623
-0.002759889421669
0.1777340204528
-0.0028821213282149
0.17793710549789
-0.0029951534089929
0.17815241127926
-0.0031080559112561
0.17837941001976
-0.0032101633089629
0.17861934302559
-0.0033177916096476
0.17887085695332
-0.0034030326330638
0.17913599911379
-0.0034998394659585
0.17941220413096
-0.0035572808887637
0.17970323602031
-0.0036490970233485
0.18000397438569
-0.0036794093323842
-0.0038313882454331
0.18032595771284
0.16612969214455
-7.792566411954e-05
0.16613795209508
-0.0002315389524763
0.16615207106743
-0.00038364569027597
0.16617237653809
-0.00053496678123126
0.16619917369603
-0.00068514688551233
0.16623276474847
-0.00083408288165397
0.16627355546743
-0.00098322149643125
0.16632214940933
-0.0011353998224692
0.1663793356188
-0.0012932629159387
0.16644598484418
-0.0014579654012268
0.16652291597481
-0.0016286686418841
0.1666108131327
-0.0018032701126811
0.16671018496933
-0.0019787928068253
0.1668213897449
-0.0021526272240503
0.16694462692692
-0.0023220741665421
0.16708000986902
-0.0024859675117971
0.16722750057869
-0.0026422691206979
0.16738711345845
-0.0027915815698831
0.16755869351656
-0.0029314695186751
0.16774246018421
-0.0030658880345825
0.16793824875791
-0.0031909420202471
0.16814680998572
-0.0033166171765888
0.16836773760628
-0.0034310909659603
0.16860246353306
-0.0035525175729015
0.16884979719305
-0.0036503663283763
0.16911204611091
-0.0037620884190318
0.16938677972265
-0.0038320145343353
0.1696781149281
-0.0039404322617091
0.16998101734616
-0.0039823117809383
-0.0041574865871909
0.17030711565484
0.15680526628082
-8.0163305003672e-05
0.15681226408155
-0.00023853680632634
0.15682433639495
-0.00039571805706269
0.15684184408233
-0.00055247452181837
0.15686512630795
-0.00070842916351486
0.15689452017309
-0.00086347679860917
0.15693046447126
-0.0010191658452764
0.15697359048242
-0.0011785258835556
0.15702470978539
-0.0013443822674868
0.15708471345522
-0.0015179691187898
0.15715444493548
-0.0016984001683919
0.15723462081047
-0.0018834460331046
0.15732579464722
-0.0020699666875023
0.15742837956295
-0.0022552121830033
0.157542644836
-0.0024363394813982
0.15766877855182
-0.0026121012688677
0.15780683851721
-0.0027803291260344
0.15795693252783
-0.0029416756200941
0.15811902674513
-0.0030935637743902
0.1582934509175
-0.0032403122451906
0.15848016967791
-0.0033776608178393
0.15868007514706
-0.0035165226828722
0.15889289275691
-0.0036439086119172
0.15912026570031
-0.0037798905524086
0.159361170313
-0.0038912709760451
0.15961819245167
-0.0040191105924493
0.15988906776713
-0.004102889883074
0.16017822065399
-0.004229585180751
0.16048075002978
-0.004284841186349
-0.0044849045337919
0.16080816794453
0.14800415996387
-8.1972387789518e-05
0.14800990265266
-0.00024427954727323
0.14801993059416
-0.00040574605104284
0.14803463161828
-0.00056717559821979
0.14805437251273
-0.00072817010943473
0.14807951817226
-0.00088862250899859
0.1481105322277
-0.0010501799504518
0.14814806362328
-0.001216057328077
0.14819293483493
-0.0013892535267419
0.14824604427712
-0.0015710786077047
0.14830824705888
-0.0017606029954318
0.14838028078157
-0.0019554798002426
0.14846273420412
-0.0021524201530704
0.14855606630577
-0.0023485443269597
0.14866060643704
-0.0025408796536389
0.14877660982445
-0.0027281046966972
0.1489042223078
-0.002907941648596
0.14904364469554
-0.0030810980466846
0.14919495747739
-0.0032448765940185
0.1493585998045
-0.0034039546098883
0.14953465350232
-0.0035537145522862
0.14972415383946
-0.0037060230565658
0.14992695531452
-0.0038467101226011
0.15014493745151
-0.0039978727249676
0.1503772509014
-0.0041235844603987
0.15062677145208
-0.0042686311772495
0.1508914095581
-0.0043675280216812
0.15117587578653
-0.0045140514404663
0.15147532481713
-0.0045842902455472
-0.0048110409823847
0.15180146123535
0.13969700912689
-8.3364302962368e-05
0.13970152669727
-0.00024879716952799
0.13970955093346
-0.00041377033953125
0.13972148999139
-0.00057911470819358
0.13973773142175
-0.00074441159097266
0.13975866061085
-0.00090955174857806
0.13978475783205
-0.0010762772209595
0.13981668002493
-0.0012479795693803
0.13985524946926
-0.0014278230181312
0.13990135917053
-0.0016171883550954
0.13995586326419
-0.001815107133785
0.1400195081702
-0.0020191247500545
0.14009290817012
-0.0022258201954348
0.14017655706581
-0.0024321932643426
0.14027083340569
-0.0026351560339509
0.14037604816861
-0.0028333194994666
0.14049242712581
-0.0030243206445262
0.14062026134678
-0.0032089323059871
0.14075973640614
-0.0033843516907171
0.14091139656717
-0.0035556148080239
0.14107541950469
-0.0037177375260257
0.14125297445263
-0.0038835780406216
0.14144404590225
-0.004037781607482
0.14165074332157
-0.0042045701794437
0.14187243823954
-0.0043452794124876
0.14211228778674
-0.0045084807580978
0.14236838669014
-0.0046236269571569
0.14264569571213
-0.004791360493034
0.14293922848685
-0.0048778230480351
-0.0051324933655814
0.14326068084097
0.1318560963485
-8.4355970140804e-05
0.13185943635006
-0.00025213722398177
0.13186552965928
-0.00041986370228501
0.1318747983235
-0.00058838342564778
0.1318876435816
-0.0007572569013474
0.13190446384667
-0.00092637206506017
0.13192574793187
-0.0010975613563224
0.13195215104371
-0.0012743827303671
0.13198448419602
-0.0014601562182002
0.1320236223636
-0.0016563265693966
0.13207040718827
-0.0018618920037702
0.13212558224504
-0.0020742998512066
0.13218977921001
-0.0022900172034628
0.1322635145977
-0.0025059286943045
0.13234720664088
-0.0027188481182051
0.1324412050645
-0.0029273179635255
0.13254581085226
-0.0031289264716497
0.13266138932707
-0.0033245108196887
0.13278823447196
-0.0035111968735384
0.13292696342174
-0.0036943437954167
0.13307785664012
-0.0038686307811701
0.13324216846718
-0.0040478899042621
0.13342004864504
-0.0042156618211296
0.13361379423905
-0.0043983158090596
0.13382302512349
-0.0045545103315665
0.13405116834459
-0.0047366240132754
0.13429652210197
-0.0048689807470407
0.1345643343134
-0.0050591727353372
0.13484950532277
-0.0051629940853757
-0.0054458410459439
0.13516285297421
0.12445525972056
-8.4969401406008e-05
0.12445748343578
-0.00025436099515108
0.12446174305049
-0.0004241233739819
0.12446846839626
-0.00059510882811543
0.12447806884629
-0.00076685740705142
0.12449095065426
-0.00093925392769374
0.12450760383796
-0.0011142145933421
0.12452867161512
-0.0012954505597233
0.1245549423407
-0.0014864269945735
0.12458726069605
-0.001688644974464
0.12462644483417
-0.0019010761902428
0.12467322417067
-0.0021210792351042
0.12472824018059
-0.0023450332595176
0.12479201899045
-0.0025697075494876
0.12486501276727
-0.0027918419391823
0.12494758932234
-0.0030098945620595
0.12504012958054
-0.0032214667722354
0.12514303772226
-0.003427419003201
0.12525674375873
-0.0036249029508049
0.12538185889286
-0.0038194589698865
0.12551882271257
-0.0040055946403055
0.12566885401786
-0.0041979212486315
0.12583236326672
-0.0043791711082409
0.12601175566602
-0.0045777082463556
0.12620690469178
-0.0047496593944149
0.12642148726486
-0.0049512066228503
0.12665380030577
-0.0051012938229384
0.12690970876117
-0.0053150812240456
0.12718417413694
-0.0054374594915378
-0.0057492881580584
0.12748762121767
0.11746980712804
-8.5232804282961e-05
0.11747099316485
-0.00025554709333506
0.11747354221591
-0.0004266724879028
0.11747788137543
-0.00059944805027457
0.11748442481435
-0.00077340090761046
0.11749358556162
-0.00094841473547759
0.11750585050726
-0.0011264795981908
0.1175218396844
-0.0013114397948679
0.11754230649621
-0.0015068938631214
0.11756805644356
-0.0017143949774342
0.11759987677463
-0.0019328965757671
0.11763847373499
-0.0021596762489169
0.11768448891756
-0.002391048494477
0.11773844614409
-0.0026236648274842
0.11780082585171
-0.0028542216972494
0.11787199267569
-0.0030810614355918
0.1179524118823
-0.0033018860274058
0.11804247863555
-0.0035174858041194
0.11814281023785
-0.0037252345998056
0.11825390526776
-0.00393055404564
0.11837649719449
-0.00412818661193
0.11851152841555
-0.0043329525138043
0.11865990737076
-0.0045275501067251
0.11882383571275
-0.004741636631038
0.11900367800215
-0.0049295017258555
0.11920325797661
-0.0051507866386325
0.11942027100917
-0.0053183068957075
0.11966185484513
-0.0055566650984765
0.11992109199748
-0.0056966966797549
-0.0060452274699133
0.12021703127202
0.11087643670415
-8.5184669155311e-05
0.11087668643749
-0.00025579689492332
0.11087767977723
-0.00042766589766323
0.11087982594321
-0.00060159428613898
0.11088354501859
-0.00077712005184637
0.11088925535939
-0.00095412514409838
0.11089743359223
-0.0011346578975442
0.11090866123698
-0.0013226675051656
0.11092364188178
-0.0015218745722489
0.11094313536327
-0.0017338885224411
0.11096789789272
-0.0019576591676065
0.11099861264449
-0.0021903910623966
0.11103591516003
-0.0024283510705951
0.1110803247218
-0.0026680744491602
0.11113234723952
-0.0029062442736557
0.11119233751443
-0.0031410517684669
0.11126083425998
-0.0033703828295809
0.11133817815049
-0.0035948297504521
0.11142519554897
-0.0038122520526436
0.11152216725817
-0.0040275258082981
0.11163029803456
-0.0042363174401861
0.1117499051378
-0.0044525596679701
0.11188290722863
-0.0046605522469877
0.11203043403943
-0.0048891634907912
0.11219444044516
-0.0050935081796121
0.11237791162691
-0.0053342578682891
0.11257903644159
-0.0055194317572044
0.11280559147796
-0.0057832201806837
0.11304469222701
-0.0059357974720787
-0.0063349600921729
0.11333442480258
0.10465315398334
-8.4872749455757e-05
0.10465259527361
-0.00025523825990192
0.10465219753268
-0.00042726823299704
0.10465235322551
-0.00060175005492906
0.10465348953426
-0.00077825643575124
0.10465606002191
-0.00095669570584263
0.10466051796721
-0.0011391159160514
0.10466736889118
-0.0013295185014034
0.10467724214388
-0.0015317478965517
0.10469084551796
-0.001747491967303
0.10470890993722
-0.0019757236570997
0.10473210115437
-0.0022135823489394
0.10476104606439
-0.002457296049403
0.10479626957811
-0.0027032980306713
0.10483830184991
-0.0029482766124579
0.1048875061594
-0.0031902561437176
0.10494446567661
-0.003427342411581
0.10500948360496
-0.0036598477420907
0.10508353056491
-0.0038862990746566
0.10516666633142
-0.0041106616350247
0.1052606066422
-0.0043302578095816
0.10536473748677
-0.0045566905690286
0.10548253399491
-0.0047783488101298
0.10561257099831
-0.0050192005477765
0.10576083380723
-0.00524177104195
0.10592543243739
-0.0054988565515146
0.10611216514199
-0.0057061645150794
0.10632336526687
-0.0059944203579275
0.10655336993304
-0.0061658021896519
-0.0066063968658299
0.10682480664913
0.098779130952861
-8.4285504101116e-05
0.098777890701022
-0.00025399808700044
0.098776208573885
-0.00042558618610013
0.098774642031222
-0.000600183592437
0.098773408030065
-0.00077702251406029
0.098773168514907
-0.00095645626967636
0.09877436141829
-0.0011403088977676
0.098777402982143
-0.0013325601433911
0.098782817870439
-0.0015371628625184
0.098791235550967
-0.0017559097254801
0.098803326964472
-0.001987815147782
0.098819697988854
-0.0022299534504014
0.098840926927473
-0.0024785250643773
0.09886751625652
-0.0027298874356996
0.098899990510651
-0.0029807509414664
0.098938725869735
-0.0032289915769798
0.098984307377616
-0.0034729239921678
0.099037078773166
-0.003712619209308
0.099098138960455
-0.0039473593316411
0.099167543872961
-0.0041800666155543
0.099247384975879
-0.0044100989777278
0.09933636164839
-0.0046456673044789
0.099439296876579
-0.0048812840984705
0.099551915947423
-0.0051318196776481
0.099685166077701
-0.005375021230759
0.099828797126477
-0.0056424876599215
0.10000242797798
-0.0058797954267784
0.10018781296159
-0.0061798054025477
0.1004138147073
-0.0063918039979325
0.10068852287407
-0.0068811050998688
0.39457832443827
0.0046812405254808
0.39005786034852
0.0045204640582056
0.38570425615593
0.0043536041618749
0.38152321492166
0.0041810412036744
0.37751986249131
0.0040033523999608
0.37369863540147
0.0038212270591044
0.37006324802195
0.0036353873486941
0.36661673608434
0.003446511906158
0.36336155998726
0.0032551760653249
0.36029974184246
0.0030618181121755
0.35743301036772
0.0028667314416336
0.35476293174615
0.002670078587375
0.35229101043467
0.002471921276614
0.35001875241304
0.0022722579854551
0.34794769377772
0.0020710585983113
0.34607940395665
0.0018682897825518
0.34441547261922
0.0016639312979217
0.34295748299995
0.0014579895780608
0.341706973701
0.0012505092566063
0.34066539079887
0.0010415828579124
0.33983404502412
0.00083134572926676
0.33921407990078
0.0006199650758224
0.33880644863161
0.00040763122029263
0.33861185304875
0.00019459553183145
0.33863041927277
-1.8566276470437e-05
0.3388638190735
-0.00023339985536259
0.33931160348216
-0.00044778446467073
0.33997355380456
-0.00066195038052666
0.34084926577036
-0.00087571202516152
0.34193815790008
-0.0010888921909643
0.34323957972747
-0.0013014218895526
0.34475289385441