/*--------------------------------*- C++ -*----------------------------------*\
| =========                 |                                                 |
| \\      /  F ield         | OpenFOAM: The Open Source CFD Toolbox           |
|  \\    /   O peration     | Version:  2112                                  |
|   \\  /    A nd           | Website:  www.openfoam.com                      |
|    \\/     M anipulation  |                                                 |
\*---------------------------------------------------------------------------*/
FoamFile
{
    version     2.0;
    format      ascii;
    arch        "LSB;label=32;scalar=64";
    class       volScalarField;
    location    "4.6";
    object      p;
}
// * * * * * * * * * * * * * * * * * * * * * * * * * * * * * * * * * * * * * //

dimensions      [0 2 -2 0 0 0 0];

internalField   nonuniform List<scalar> 
22000
(
0.10451396400913
0.10447578404194
0.10439621250881
0.10427325336773
0.10410605102023
0.10389466243063
0.1036394619542
0.10334076225023
0.10299872108592
0.10261340632287
0.10218487948898
0.10171324110945
0.10119863145674
0.10064122492569
0.10004121958952
0.099398850941292
0.098714385382732
0.097988147966867
0.097220492297453
0.096411847312864
0.095562631876324
0.094673374668109
0.093744524591657
0.09277677506012
0.091770611310414
0.090727067481825
0.089646543091706
0.088530547973837
0.087379009077293
0.086194442347431
0.10523752014092
0.10519752343535
0.10511601823915
0.10499125980095
0.10482232761687
0.1046091382087
0.10435195917116
0.10405104218886
0.10370650931153
0.10331839770102
0.10288673149447
0.10241156792333
0.10189299947923
0.10133115400952
0.10072617908435
0.10007826149903
0.099387606859477
0.098654487420907
0.097879186257199
0.097062093682836
0.096203552340508
0.095304084895608
0.094364029621765
0.093384124943686
0.092364668058222
0.091306869484791
0.090210736421965
0.08907812851389
0.087908008752703
0.086703193373193
0.1065579331547
0.10651725325975
0.10643450817577
0.10630813915597
0.10613731347223
0.10592191475628
0.10566213039862
0.10535813561469
0.10500998848032
0.10461766643923
0.10418112769448
0.10370035708725
0.10317536543788
0.10260619706871
0.10199290598512
0.10133559018902
0.10063435029898
0.099889374238325
0.09910082958408
0.098269043532467
0.097394216415168
0.096476849363552
0.0955170658088
0.094515688218995
0.093472661117921
0.092389547119417
0.091265630467848
0.090103560128026
0.088900565087118
0.087660377373922
0.10837958864962
0.10833848394054
0.10825487771581
0.10812722309355
0.10795469121751
0.10773713788121
0.10747469505827
0.10716746735823
0.10681543254064
0.10641848044546
0.1059764710951
0.10548928373915
0.10495681086111
0.10437897507696
0.10375569293204
0.10308693138303
0.10237263587256
0.10161286768397
0.10080761841258
0.099957111731176
0.099061326920064
0.098120722230266
0.097135101355348
0.09610539962435
0.095031027075132
0.09391401750055
0.092752564621008
0.091550407958016
0.090302219461022
0.089012991899051
0.11061669425571
0.11057531888534
0.11049114865954
0.1103626360438
0.11018893491642
0.10996985404451
0.10970545339789
0.10939574802876
0.10904061063225
0.10863981356498
0.10819308426132
0.10770015933865
0.10716077154869
0.10657467899695
0.10594161218293
0.10526135929207
0.10453365254968
0.10375837455201
0.10293526987069
0.10206441000273
0.10114546876926
0.10017883443689
0.099163876512788
0.098101655392564
0.096990853892691
0.095834084544976
0.094628097884326
0.093378035311663
0.092075280250871
0.090726505704272
0.11319206892998
0.11315068164945
0.11306646639027
0.11293788709421
0.11276407600574
0.1125447748293
0.11227994560285
0.11196948732937
0.11161313993062
0.11121052782635
0.11076121076951
0.11026474409029
0.10972065712727
0.10912849795468
0.10848775928378
0.10779799933631
0.10705867525583
0.10626943547649
0.10542970236495
0.10453934061262
0.10359762280278
0.10260482468138
0.10155975132265
0.10046358590907
0.0993140832795
0.098114527970213
0.096859869870139
0.095556933983913
0.094193084987863
0.09277700544586
0.11603581603256
0.11599480207581
0.11591132569656
0.11578386287064
0.11561151912223
0.11539395355002
0.11513100740123
0.11482243857986
0.11446782740781
0.11406662103495
0.11361817777771
0.11312183416236
0.11257687275581
0.11198258488322
0.11133817092498
0.11064290325005
0.10989589647977
0.10909650223951
0.10824373739029
0.10733719596781
0.10637564405068
0.10535919262226
0.1042859429902
0.10315718701309
0.10196954248086
0.10072703771899
0.099422456687935
0.098064551725872
0.096635938753822
0.095147543698203
0.11908416110305
0.11904401722162
0.11896229645483
0.1188374851172
0.11866865347383
0.11845536664525
0.11819732765533
0.11789413084614
0.11754517200429
0.11714969373392
0.11670682103523
0.11621563494313
0.11567512855894
0.11508428999588
0.11444197421634
0.11374711291493
0.11299841257861
0.11219486491892
0.11133499599993
0.11041806067603
0.10944220508539
0.10840731252057
0.10731062773077
0.10615351048067
0.10493121487539
0.10364853471898
0.10229571152865
0.10088361842215
0.099389416225757
0.097826443468456
0.12227875066682
0.12224006871981
0.12216130699183
0.12204097057297
0.12187808765256
0.12167211781845
0.12142261280979
0.12112898681723
0.12079043009044
0.1204059563114
0.11997442942551
0.11949464369535
0.11896526657322
0.11838494067802
0.11775212684886
0.11706536109193
0.11632287661699
0.11552323804397
0.11466439309039
0.11374518450456
0.11276302312081
0.11171749287068
0.1106048390623
0.10942641846376
0.10817594488636
0.1068589088911
0.10546269410362
0.10400029717445
0.10244266367169
0.10080568788657
0.12556627190431
0.12552971161151
0.12545524997503
0.12534142776435
0.12518722970811
0.12499199898124
0.12475512506814
0.12447583101229
0.12415308788741
0.12378566353145
0.12337214030926
0.12291099951159
0.12240055239396
0.12183905944146
0.12122454611699
0.12055510160876
0.11982843072604
0.11904260371569
0.1181949167369
0.11728371166318
0.11630557515397
0.11525966329042
0.11414115508047
0.11295118119132
0.11168196368892
0.11033933238951
0.10890796544804
0.10740271216573
0.10578757708496
0.10408048602035
0.12889834953613
0.12886461258355
0.12879587739874
0.12869074341276
0.12854815737216
0.12836733924719
0.12814750836741
0.12788769116518
0.12758663361652
0.1272428489215
0.1268546258426
0.12642011687792
0.12593725777808
0.12540389911828
0.12481760268177
0.12417596756204
0.12347613250931
0.12271559860792
0.12189096938498
0.12099995718134
0.12003830479733
0.11900451286078
0.11789274917507
0.11670351092833
0.11542774149024
0.11407088545497
0.11261553382418
0.11107717081182
0.10941442259414
0.10764735624606
0.13223158572193
0.13220138828794
0.13213983720447
0.1320456167995
0.13191764674467
0.13175502303391
0.13155679216161
0.13132178465237
0.1310485241802
0.13073527114407
0.13038001998499
0.12998059043965
0.12953453557279
0.1290392830435
0.12849191324192
0.1278895055422
0.127228604172
0.12650609009445
0.12571782762479
0.12486082052305
0.12392988515714
0.12292278267621
0.12183249117559
0.12065886247648
0.11939120127837
0.11803468591193
0.11656935579273
0.11501137268599
0.11331436724533
0.11149865777751
0.13552764881437
0.13550169485545
0.13544876229782
0.13536764895735
0.13525726258481
0.1351165806337
0.13494448105375
0.13473960653458
0.13450027003455
0.13422449177658
0.1339099831037
0.13355424005343
0.13315443937593
0.13270758869958
0.13221028529948
0.13165908093402
0.13104990829086
0.13037900351022
0.12964145459418
0.12883350820205
0.12794898089945
0.12698482302101
0.12593269406911
0.12479172466841
0.12354934494675
0.12221044693416
0.12075197325068
0.11919107418485
0.11747485119063
0.11562491878251
0.13875334187252
0.13873229801821
0.13868934439991
0.13862342189597
0.13853344484143
0.13841828334396
0.13827665829739
0.13810704056677
0.13790755278234
0.13767599803175
0.13740982805983
0.13710623841695
0.13676205146747
0.13637387522801
0.13593784065669
0.13544998405385
0.13490563108562
0.13430036846714
0.13362849031677
0.13288546270923
0.13206405231161
0.13116035176811
0.13016459365297
0.129075128639
0.12787732302634
0.12657568375632
0.12514386646468
0.12359951658937
0.12188305176861
0.12001594581841
0.14188060466402
0.14186507751081
0.14183334559819
0.14178452044744
0.14171754343626
0.14163119359667
0.14152405324301
0.14139444539602
0.14124033155084
0.14105933086824
0.14084867082552
0.14060528330491
0.14032567318528
0.14000608601518
0.13964222132879
0.13922963313967
0.13876306685269
0.13823748144422
0.13764638609022
0.1369844649231
0.13624341740904
0.13541844629486
0.13449830402503
0.13348046749438
0.13234816147944
0.13110527211058
0.12972205883275
0.12821611899623
0.12652070953537
0.12465473068061
0.14488643145564
0.14487694836688
0.14485751951579
0.14482746374463
0.14478576882749
0.14473113875079
0.14466204154562
0.14457668391034
0.1444729033633
0.14434817718565
0.14419955428465
0.14402375192054
0.14381700843384
0.14357526023469
0.14329382850742
0.14296783856025
0.14259150558545
0.14215920719488
0.14166370710629
0.14109893327728
0.14045553728952
0.13972781716986
0.13890304569776
0.13797774888866
0.13693297516443
0.13577183884012
0.13446103779202
0.13301786602603
0.13136781006659
0.12952587450361
0.14775268005736
0.14774968079614
0.14774346297597
0.14773357458476
0.14771906922217
0.1476986046471
0.14767056391621
0.1476330729146
0.14758388821775
0.14752039415452
0.14743951507137
0.14733781265798
0.14721132195694
0.14705573786993
0.14686607316493
0.14663709649981
0.14636256521627
0.14603634402949
0.14565052187448
0.14519832271227
0.14466941332159
0.14405720326208
0.14334752080548
0.14253591823194
0.14160123423589
0.14054578251989
0.13933249468461
0.13797834086224
0.13640029935865
0.13460864444036
0.15046579843956
0.15046962289148
0.1504773143183
0.15048868196525
0.15050287547452
0.15051852212862
0.15053394968687
0.15054724458782
0.15055613083822
0.15055795405433
0.15054957508437
0.15052746725909
0.15048753582545
0.15042531304895
0.15033558690084
0.15021285676616
0.15005051339169
0.14984199823701
0.1495788214609
0.14925358428142
0.14885506608938
0.14837585006453
0.14780040075558
0.14712333173487
0.14632126451105
0.14539573802477
0.14430571031386
0.14306786055907
0.14159010746596
0.13987726586507
0.15301644251304
0.15302732387847
0.15304942212589
0.15308283258155
0.15312681285787
0.15317998657775
0.15324066181124
0.15330692762056
0.15337652494131
0.15344681599476
0.15351466256017
0.15357652156205
0.15362825065802
0.1536653074346
0.1536823515632
0.15367371299641
0.15363252428844
0.15355191063084
0.15342292127904
0.15323763818973
0.15298407617452
0.15265408584185
0.15223089431485
0.15170828341078
0.15106075905653
0.15028917300369
0.14934843893789
0.14825469193483
0.14690652699288
0.14530123218164
0.15539908787088
0.15541716786216
0.15545396969264
0.15550989457824
0.15558432650378
0.15567591018967
0.15578297118163
0.15590364614552
0.15603574484344
0.15617670113372
0.15632344244872
0.15647247939556
0.1566197071128
0.15676059774931
0.15688978977256
0.15700155045568
0.15708888272682
0.15714471356512
0.15715977927354
0.15712575765018
0.15703005908347
0.15686389063206
0.15660940359567
0.1562596321256
0.15578720372063
0.15519246822246
0.15442688132188
0.15350528600048
0.15232016041192
0.15084761379489
0.15761153125277
0.15763686932681
0.15768849650254
0.15776712814385
0.15787228628808
0.1580026599821
0.15815662859099
0.15833241982528
0.15852796473977
0.15874082545691
0.15896806580504
0.15920632226859
0.15945161770003
0.15969952249075
0.15994476574185
0.16018164815307
0.16040318854513
0.16060222263119
0.16076936651418
0.16089599416962
0.16096916110177
0.16097947535115
0.1609082875204
0.16074778026685
0.16046898707961
0.16007152744359
0.15950473455572
0.15878050769353
0.15779422353563
0.15649084428221
0.15965438802392
0.15968696581446
0.15975338886126
0.15985468173639
0.15999051710176
0.16015964386093
0.16036051923517
0.16059149806105
0.16085067829798
0.16113579828353
0.16144412524728
0.16177249128595
0.16211714677648
0.1624738493076
0.16283755412311
0.16320268669881
0.16356245477367
0.1639096682947
0.16423507056221
0.16452974073842
0.16478078808171
0.16497809378873
0.16510286973502
0.16514595623814
0.16507752852335
0.16489522666781
0.1645467116271
0.16404266087839
0.16327752739389
0.16218948780379
0.16153065365455
0.16157029408363
0.16165125563728
0.16177488961724
0.16194105703652
0.16214857599344
0.16239598293175
0.16268177484726
0.16300424451988
0.16336135003958
0.16375062215021
0.16416913971288
0.16461345049442
0.16507955409741
0.16556275783398
0.1660577033282
0.16655801144702
0.16705652799804
0.16754446878353
0.1680125059948
0.16844842847868
0.16884086628375
0.16917224957369
0.16943071079869
0.16958818696414
0.16963719306341
0.16952461313243
0.16925671430521
0.16871729829468
0.1678749250534
0.16324555352256
0.16329173942754
0.16338644823802
0.16353154812532
0.16372711984477
0.16397205595797
0.16426507377982
0.16460481643197
0.16498973583641
0.16541802607417
0.16588753775633
0.16639566865596
0.16693934361108
0.16751484536874
0.16811786757761
0.16874325097869
0.16938511780623
0.17003635669061
0.1706889880421
0.17133319318827
0.17195822514114
0.17255071952881
0.17309632196151
0.17357775908797
0.17397456481075
0.17426681952866
0.17441519787601
0.17439716198624
0.17409250018178
0.17345301588887
0.16480693818394
0.16485894805319
0.16496575724853
0.16513046733774
0.1653532196242
0.1656325636204
0.16596798766901
0.16635837217799
0.16680233939581
0.16729833830415
0.16784453701537
0.16843867949297
0.16907815254344
0.16975972312672
0.17047967405152
0.17123320255201
0.17201490070811
0.17281765813879
0.17363418333987
0.17445426573719
0.17526889839781
0.17606294065145
0.1768264102397
0.17753542192394
0.17818188820406
0.17872559784082
0.17916603673584
0.17942314882987
0.17945958335145
0.17894602730153
0.085051519681069
0.083956063361536
0.082833973625161
0.081687310472402
0.080518180167412
0.0793280659313
0.078117992426613
0.076888895609371
0.075641836924512
0.07437803440096
0.073098810309176
0.071805534732286
0.070499591105902
0.069182362502737
0.067855228831463
0.066519566990907
0.065176749994163
0.063828145625413
0.062475117606487
0.061119030289325
0.059761258576487
0.058403199155239
0.057046287255031
0.055692009468063
0.054341873978517
0.052996996888769
0.051658451792445
0.050327649078176
0.0490061028223
0.047695255479853
0.046396433801327
0.045110864126309
0.043839708154872
0.042584082172619
0.041345056811864
0.040123641144932
0.038920779606837
0.037737344005115
0.036574148718413
0.035431932645126
0.034311392574411
0.033213137760384
0.032137766598281
0.031085748957569
0.030057590626066
0.029053556099823
0.028074048155268
0.027119016185777
0.026188765785839
0.025282710864252
0.085545665885468
0.084439400694502
0.083302238404552
0.082139714237835
0.080955399569549
0.079750467147626
0.078525121859599
0.077279733575048
0.076015161429855
0.074732608478894
0.073433403885682
0.072118888926856
0.070790401059748
0.069449295986602
0.068096965972381
0.06673484273215
0.065364389654879
0.063987091937818
0.062604449002797
0.061217970839752
0.059829171627448
0.058439559801705
0.057050612103007
0.055663739979581
0.05428029622707
0.052902113854999
0.051531085191499
0.050168688914355
0.04881625668135
0.047475136737949
0.046146712096274
0.044832366948465
0.043533441796363
0.042251202702505
0.040986841184724
0.039741479391158
0.038516177811252
0.037311917050193
0.036129607481432
0.034970067098172
0.033834058692807
0.032722240637996
0.031635239300239
0.03057354561789
0.029537659691294
0.028527892712165
0.027544641730419
0.026588069655084
0.025658613038205
0.024756860668975
0.086471563974257
0.085331454651334
0.084151313569648
0.082944155560932
0.081716847631988
0.080470200325795
0.079203019090717
0.077914791976512
0.076606221631175
0.075278709486351
0.073933800363771
0.072572951924363
0.071197550243538
0.069808992347959
0.068408734523995
0.06699829462514
0.065579232174052
0.06415312901602
0.062721577939316
0.061286177958626
0.059848534099346
0.05841025943602
0.056972985818062
0.055538385426598
0.054108194161878
0.052684042228448
0.051267483714274
0.049860102940763
0.048463468606498
0.047079118537884
0.045708550194139
0.044353207251706
0.043014478479312
0.04169369575135
0.040392126392855
0.039110953779696
0.037851280323508
0.036614119162977
0.035400411076775
0.034210995312212
0.033046643757876
0.031908004284012
0.030795684521282
0.029710133111778
0.028651817806133
0.027621005240523
0.026618145295749
0.025643650723077
0.024698794176067
0.023786953386523
0.087777652926709
0.086582611518184
0.085334651660623
0.084058442359196
0.082765679388247
0.08145641772588
0.080127258876942
0.078776360585432
0.077404205522316
0.076012483956921
0.074603027122793
0.073177414478761
0.0717370468158
0.070283323440402
0.068817736359027
0.067341871879075
0.065857374343548
0.064365914442576
0.062869173612635
0.061368840008474
0.059866609059943
0.05836418511014
0.056863280595835
0.055365609576637
0.053872872574341
0.052386770866758
0.050909010485592
0.049441276487195
0.047985228862964
0.046542492203612
0.045114650263406
0.043703241061009
0.042309751213898
0.040935596883032
0.039582117003801
0.038250560532367
0.036942100379865
0.035657810190015
0.034398689450402
0.033165614839961
0.031959407261897
0.030780737199022
0.029630268993071
0.028508467861714
0.027415895562816
0.026352874942193
0.025320089562029
0.024318355769138
0.023349982175755
0.022421701332174
0.089432960011085
0.088165204202287
0.086827659648341
0.085460892067088
0.084082912472739
0.082692545939455
0.081283341690475
0.079851681342784
0.078397789258341
0.076923763199497
0.075431816958067
0.073923681456974
0.072400764358991
0.070864456492876
0.069316285838993
0.067757916195372
0.066191087327148
0.064617566541772
0.063039127570676
0.061457546016866
0.05987459958236
0.058292068593665
0.056711735554635
0.055135383600663
0.053564796377208
0.052001751028422
0.050448018447047
0.048905358818118
0.047375512065225
0.045860188186912
0.044361061288108
0.042879754685911
0.041417829910081
0.039976769611145
0.038557983780024
0.037162791467791
0.035792437837727
0.034448052853
0.033130698693361
0.031841291872108
0.030580716228999
0.029349660307375
0.028148857598051
0.026978758980795
0.025840023736598
0.024732955661101
0.023658508072055
0.022617949833211
0.021615245751628
0.020662276661838
0.091416162605294
0.090059698553152
0.088612217863312
0.08713474873528
0.085653144156616
0.084164456863098
0.082658294864468
0.081128833757372
0.079576037737801
0.078002556235002
0.076411091951621
0.074803559929338
0.073181367710773
0.07154588735506
0.069898684447943
0.068241511812539
0.066576218614357
0.064904679964701
0.063228768327204
0.061550348775091
0.059871280117857
0.0581934163645
0.056518608407218
0.05484870544275
0.053185555039558
0.051531000714477
0.0498868894433
0.048255061202485
0.046637343776849
0.045035539740144
0.043451413034557
0.041886670694745
0.040342963792826
0.038821870521099
0.037324901274673
0.03585346202758
0.034408886955103
0.032992376906779
0.031605081717898
0.03024796556531
0.028921999597732
0.027627880958102
0.026366452713053
0.025138123091172
0.023943739674422
0.022783539174224
0.021658961180132
0.020571684962866
0.019527837119597
0.018544906621026
0.093712846383414
0.092253189443094
0.090676504984139
0.089069304344271
0.087466886250497
0.085863877975361
0.084244953387424
0.082601624794437
0.080933616065893
0.079244297322944
0.077536973688185
0.075813771612149
0.074076086052477
0.072325260011022
0.070562903358925
0.068790877915115
0.06701116649762
0.065225774273844
0.063436690879538
0.061645885171354
0.059855307344232
0.058066892244542
0.05628256505545
0.054504248488315
0.052733869174579
0.05097334310417
0.049224590954618
0.047489537061559
0.045770099489568
0.044068171579394
0.042385613264208
0.040724233758589
0.039085793144415
0.037471971121325
0.035884379460753
0.03432451091704
0.032793796479116
0.031293504765163
0.029824878183074
0.028388915443551
0.026986690532154
0.025618886554042
0.024286491347056
0.022989818341661
0.021729975212865
0.020507021586848
0.019323061484822
0.018180093205475
0.017087199864893
0.016068741920445
0.096313837614653
0.094737768897163
0.093013390412646
0.091258221518621
0.089518689589798
0.087786242970393
0.086039551815065
0.084266987455115
0.082468056937539
0.080647035340538
0.078807965276787
0.076953223542503
0.075084174957489
0.073202114496701
0.071308701543389
0.069405929494087
0.067495940877835
0.065580895657607
0.063662925459213
0.061744128695572
0.059826572439743
0.057912295249712
0.056003314044464
0.054101632679635
0.052209250552354
0.050328156006181
0.048460350032889
0.046607840903868
0.04477263805027
0.042956735972271
0.041162108566544
0.039390681206474
0.037644333229751
0.035924856212333
0.034233985078067
0.032573320219356
0.03094441703584
0.029348626918157
0.027787319740864
0.026261539771617
0.024772513598031
0.02332090162583
0.021907911369816
0.020533714195167
0.019199818695774
0.017905994895782
0.016655326175788
0.015449973514558
0.014302854266455
0.013245839307157
0.099213496396507
0.097508778666745
0.095618953595707
0.093698582851926
0.091806710044375
0.089930575862582
0.088041745500061
0.086125074532282
0.084179937450071
0.082211697988915
0.080225267460579
0.078223320467714
0.076207178898897
0.074178069363372
0.072137707660294
0.070088246974336
0.06803201929674
0.06597136451909
0.063908581086834
0.061845923280403
0.059785600064271
0.057729774732004
0.055680572401042
0.053640091882315
0.051610420238972
0.049593635684402
0.047591837001878
0.045607137829744
0.043641664711545
0.04169753745684
0.039776865217846
0.037881710078802
0.036014098162042
0.034175961312913
0.032369187954672
0.030595506089325
0.028856624438293
0.027153992186369
0.025489141956791
0.023863162107127
0.022277477192522
0.02073269269302
0.019230316721573
0.017770286708549
0.016354675842825
0.014982750685196
0.013658938537568
0.012385207598679
0.01117939001243
0.01008145343759
0.10240949439382
0.10056400479161
0.098490805778388
0.096388719178724
0.094330548246882
0.092297602919072
0.090252986546502
0.088177781827666
0.086071482104082
0.083940785371074
0.081791584701448
0.079626872676311
0.077447910596593
0.075255847615797
0.07305247575734
0.070840145071066
0.068621414060633
0.066398835242498
0.064174905456311
0.061952066924105
0.059732702335281
0.057519130163011
0.055313613577932
0.05311837763071
0.05093563190134
0.048767565918457
0.046616398434184
0.044484373506246
0.042373759763315
0.040286826283818
0.038225843297064
0.036193035766912
0.0341906065933
0.03222065335703
0.030285248662714
0.028386271255568
0.026525620199918
0.024704859272341
0.02292572880264
0.021189361447734
0.019497446046379
0.017850500472551
0.01625044986187
0.014696889480007
0.01319268515177
0.011736336128582
0.010334110526249
0.0089873112187451
0.0077200201512889
0.0065805962437895
0.10590067859053
0.10390256304679
0.10162853018529
0.099328789595029
0.097091091677694
0.094889110217353
0.092675857364164
0.090428216642455
0.088146127933853
0.085837993555591
0.083510825849232
0.081167915093918
0.078810423578659
0.076439425825646
0.074056823625744
0.071665205161357
0.069267394963781
0.066866196525295
0.064464344948349
0.062064512405352
0.059669298281104
0.05728121847408
0.054902714380841
0.052536173378394
0.050183957628365
0.047848401238253
0.0455318759156
0.043236786034087
0.040965572662303
0.038720686302951
0.03650459586249
0.034319727556072
0.032168502849439
0.030053222959347
0.027976192187188
0.025939476800686
0.023945220226501
0.021995128107576
0.02009121256038
0.018234656838055
0.016427502479763
0.014670140145897
0.012965058954919
0.011311372010707
0.0097130268309931
0.0081674066773131
0.0066832467306466
0.0052604951396712
0.0039310742569896
0.002751540241163
0.10968200965655
0.10752218252057
0.10503201814488
0.10252017857024
0.10009067220599
0.097708102597191
0.095313950533191
0.092880476118294
0.090408362739077
0.087908105217711
0.085387981020146
0.082851540393722
0.080299799774463
0.077733770994787
0.075155510127276
0.072567890456634
0.069974046893452
0.067377078891812
0.064780006948081
0.062185783114716
0.059597275755817
0.057017250420446
0.054448376448905
0.051893249594963
0.049354429210979
0.046834433452053
0.044335827779132
0.041861219480435
0.039413267898889
0.036994652715723
0.034608091601696
0.032256261805198
0.029941859129381
0.027667440103333
0.025435600826032
0.023248642195857
0.021109017299946
0.019018608066581
0.016979773318539
0.014993757410989
0.013063054933276
0.011187888595188
0.0093714806462383
0.0076123009448918
0.005915723628098
0.0042775767940795
0.0027098309795282
0.0012101322194961
-0.00017983313851523
-0.0013960622600776
0.11374904538078
0.11141986056989
0.10869967820821
0.10596247085941
0.10333054798632
0.10075736515165
0.098170919141806
0.095538710298539
0.092862785101413
0.090156143501133
0.087428388759081
0.08468325768556
0.081921586871051
0.079144355649851
0.076353827714426
0.073553213929746
0.070746010318006
0.067935664035323
0.0651255351552
0.062318913303148
0.059518996546239
0.056728862081626
0.053951469110429
0.051189682629478
0.048446320341877
0.045724134865417
0.043025940042998
0.040354603561844
0.037713062049762
0.035104284042007
0.032531299469247
0.02999710080866
0.027504725735065
0.025057049821873
0.022657033487748
0.020307272343332
0.018010607893561
0.015769148664801
0.013585688629094
0.011461562731717
0.0093998271965057
0.0074005225500955
0.0054677741462985
0.0035992760088707
0.0018021879822249
7.0318816104318e-05
-0.0015802546486287
-0.0031554013423737
-0.00460141386373
-0.0058484416533764
0.1180883370576
0.11558748222612
0.11263052116169
0.10965572944236
0.10681149700283
0.10403875305689
0.10124953887119
0.098406433067237
0.095513562334454
0.092586868520478
0.089637294360077
0.086668642428632
0.08368152741374
0.080676943873362
0.077657435784725
0.074626615224934
0.071588395588624
0.068546628881944
0.065505076612432
0.062467432730023
0.05943729678653
0.056418132836306
0.053413268649609
0.050425918908476
0.047459244485479
0.044516285706767
0.04160016682974
0.038714087580488
0.035861338218071
0.033045254879245
0.030269259746634
0.027536740769188
0.024851161727034
0.022215800567847
0.019634071103177
0.017108944510324
0.014643746253195
0.012240882313732
0.0099036841598338
0.0076336297102814
0.0054344447104923
0.0033060123127976
0.0012534876256504
-0.00072625615489212
-0.0026240252944709
-0.0044483445360389
-0.0061782682645222
-0.0078243816320919
-0.0093185095545461
-0.010587612905933
0.12269775723826
0.12002177638985
0.11681289003534
0.11359375845946
0.11053217283357
0.10755247697925
0.10455096469157
0.10148593222848
0.098364045480584
0.095204477524541
0.092019544834079
0.088813018848431
0.085585252327459
0.08233731002634
0.079072103049838
0.075793720224483
0.072506557071475
0.069214936965769
0.065923095860787
0.062635211112131
0.059355365089696
0.05608749166194
0.052835382066857
0.049602713160071
0.046393140646127
0.043209994019415
0.040056773254737
0.03693711074232
0.03385475242248
0.030813501591374
0.027817271119722
0.02486994743972
0.02197552295746
0.019137784489195
0.016360705153324
0.013647736620748
0.011002800144758
0.0084286925462076
0.0059294070345886
0.0035066286330996
0.0011648908773255
-0.0010960506598431
-0.0032698793591872
-0.0053605350561071
-0.0073566897983397
-0.0092692778784197
-0.011072204500962
-0.012781414115584
-0.014312250148978
-0.015591804145172
0.12756294640968
0.12470913958094
0.12123893049677
0.11777098642636
0.11448860869913
0.11129661536797
0.108074785779
0.10477796140345
0.10141619235318
0.098012078931689
0.094579163522736
0.091121072085234
0.087637911073844
0.084130904599515
0.08060342911848
0.077060130254884
0.073505953301015
0.069945764090859
0.066384357556276
0.062826487172849
0.059276807525005
0.055739792769353
0.052219765755831
0.048721024217122
0.045248335830024
0.041804773579027
0.038394395365588
0.035021451983806
0.031690278425748
0.028405269270047
0.025170947144645
0.021991824814229
0.018872542947826
0.015817532840254
0.012831447063058
0.0099183589372706
0.0070829087269073
0.0043284114059424
0.0016596659208728
-0.00092136343314533
-0.0034091270727025
-0.0058040392667857
-0.0080983224009722
-0.010296903219651
-0.012386018079505
-0.014379258081077
-0.01624539294568
-0.018006113347363
-0.019559760124898
-0.020832590444551
0.13266399589996
0.12963336812113
0.1258972810801
0.12217858944933
0.11867450781208
0.11526693088521
0.11181838720336
0.10828140150694
0.10467036050141
0.10101140054525
0.097319023045627
0.093596555598741
0.089843907554564
0.086062593205473
0.082256571192478
0.078431130929844
0.074591844789332
0.070744207430921
0.066893675230644
0.063045694561228
0.059205612942861
0.055378514109903
0.051569118928947
0.047781397974444
0.044025756043198
0.04030075020182
0.036612184545208
0.032965354403459
0.029365335784178
0.025817246071121
0.022326351083592
0.018897944929105
0.015537454928352
0.012250131951773
0.0090414414444744
0.005916275135464
0.002880106177059
-6.302675729813e-05
-0.0029074106246426
-0.0056506381867748
-0.0082859550855674
-0.010813966654999
-0.013224995329461
-0.015525369163372
-0.01769803433789
-0.019760115345749
-0.0216741247556
-0.023468737122891
-0.025027661489688
-0.026279013328396
0.1379773853241
0.1347742532084
0.13077192490422
0.12680445731056
0.12308061949641
0.11945626425928
0.11577647507819
0.11199282722408
0.1081249565697
0.10420250293125
0.10024055517867
0.096241988844861
0.092206628832389
0.08813645590812
0.084036126594676
0.079911640486389
0.075769265506523
0.071615222566439
0.067455757921933
0.063297167246286
0.059145720334674
0.055007568143707
0.050888821223011
0.046796208689358
0.04272900315982
0.038698701833117
0.034709672836937
0.030767420187221
0.026877734028378
0.023046548711357
0.019280010927759
0.015584375541989
0.011966023082306
0.008431241876554
0.0049864622443062
0.0016376557365024
-0.0016087800256493
-0.0047477521789468
-0.0077726397634769
-0.010680176290273
-0.013462468175058
-0.01611993976177
-0.018640900091794
-0.021033176556978
-0.023275640793687
-0.025390222131944
-0.027331234314636
-0.029138262371019
-0.030676784616384
-0.03188905761857
0.14347448218982
0.14010665830567
0.13584290047358
0.13163331080521
0.12769484925935
0.12385458935017
0.11994088883985
0.11590618289969
0.11177612169335