/*--------------------------------*- C++ -*----------------------------------*\
| =========                 |                                                 |
| \\      /  F ield         | OpenFOAM: The Open Source CFD Toolbox           |
|  \\    /   O peration     | Version:  2112                                  |
|   \\  /    A nd           | Website:  www.openfoam.com                      |
|    \\/     M anipulation  |                                                 |
\*---------------------------------------------------------------------------*/
FoamFile
{
    version     2.0;
    format      ascii;
    arch        "LSB;label=32;scalar=64";
    class       volScalarField;
    location    "2";
    object      p;
}
// * * * * * * * * * * * * * * * * * * * * * * * * * * * * * * * * * * * * * //

dimensions      [0 2 -2 0 0 0 0];

internalField   nonuniform List<scalar> 
22000
(
0.0078300552687773
0.0078088643278679
0.0077647299749178
0.0076967174548724
0.0076037939017112
0.0074855068517707
0.0073426946148527
0.0071766610446891
0.0069902247329919
0.0067859540979321
0.0065609603630901
0.006307582354886
0.006023531975017
0.005719048307452
0.0054053120518129
0.0050778241748998
0.0047236627912707
0.0043421006741585
0.0039443937516596
0.0035364336057495
0.0031136317840701
0.0026714667766886
0.0022115123478834
0.0017374730240839
0.0012506119421528
0.00075104677343115
0.00023896572715259
-0.00028383453664221
-0.00081664328274852
-0.0013574061971946
0.0082303645321733
0.0082078264168862
0.0081619303977992
0.0080916769393837
0.007995934837965
0.0078737781785399
0.0077255174287884
0.007553184242347
0.0073611817323994
0.0071533630134154
0.0069251718329783
0.006664258017407
0.0063677575614077
0.0060516409397309
0.0057302009640365
0.0053952093708029
0.0050300331970636
0.0046348947081277
0.0042233421845812
0.0038015652648686
0.0033642668421799
0.0029068898289289
0.0024313161255587
0.0019414724600009
0.0014385337935301
0.00092255321881276
0.00039362514596212
-0.00014634716336197
-0.00069706798126218
-0.0012561643378125
0.008969633894215
0.008945850191762
0.0088974958479843
0.0088234693280605
0.0087225855150689
0.0085936748689394
0.0084368987801255
0.0082547882389594
0.0080529716543514
0.0078363360065679
0.0075983542156116
0.007322569162046
0.0070064581989101
0.0066714729787459
0.0063342908110011
0.0059829947797629
0.0055976843436431
0.0051796969978783
0.0047447683014213
0.0042992679414146
0.0038369980808013
0.0033531666809312
0.0028498905083868
0.0023313446275469
0.0017986007778319
0.0012518478679878
0.00069106064171923
0.00011853120326493
-0.00046583255840376
-0.0010588435999631
0.01000755155397
0.009982167630418
0.0099305849848122
0.009851551829548
0.0097437607832314
0.0096060415189086
0.0094384995505522
0.0092437140965733
0.0090282205094519
0.0087980506811182
0.0085452064742301
0.0082497092970531
0.007909065726538
0.0075491124068831
0.0071886546450916
0.0068129635990705
0.0063994328195264
0.0059502160234122
0.0054828694493647
0.0050040014270756
0.0045066558666585
0.003985828523627
0.0034438098697531
0.0028850475750046
0.0023105010497003
0.0017205588649808
0.0011149739915877
0.00049653672941852
-0.00013554110824978
-0.0007771109276168
0.011310803065901
0.011283493572224
0.011228035809112
0.011143014960333
0.011026901850635
0.010878525005454
0.010697976451913
0.010487815927397
0.010255509506329
0.010008309645646
0.0097368188945699
0.0094178327061014
0.0090489573962965
0.0086597576580232
0.008270605958761
0.0078643452997096
0.0074162782208877
0.0069292724365809
0.0064221881930785
0.0059017239714817
0.0053604011977972
0.0047931986692311
0.004202527956352
0.0035930510808196
0.002965558514556
0.0023207262534755
0.0016580206049245
0.00098083089877475
0.00028749386366873
-0.00041656969331638
0.012851016963181
0.012821534544218
0.012761669109088
0.012669931192187
0.012544600450817
0.012384488707045
0.012189810162098
0.011962861781493
0.011711594353212
0.011444508208063
0.011151060457955
0.010804989871705
0.010404090762798
0.009981420725502
0.009558546992817
0.0091160427254156
0.0086277032862276
0.0080973376454957
0.0075447547117776
0.0069763484701953
0.006384055853929
0.0057629742046671
0.0051156468507571
0.0044468595458931
0.0037571235718265
0.003047443287638
0.0023170099553421
0.0015699048843688
0.00080354249856556
2.4737064796821e-05
0.014602755330238
0.01457097298474
0.014506433095592
0.014407552616708
0.014272380084164
0.014099688328937
0.013889794773631
0.013644769138087
0.013373041675825
0.013084234340042
0.012766877915903
0.012392311722404
0.011958468916381
0.011500801026719
0.01104136613946
0.010558902508399
0.010026237781352
0.0094480194020423
0.0088446910194384
0.0082223023793454
0.0075723273009196
0.0068901002375932
0.0061783310593266
0.0054419651410158
0.0046811690629954
0.0038973142422705
0.0030891964958023
0.0022617378095743
0.0014110868678933
0.00054582210676919
0.016541998932182
0.016507867118001
0.016438551969078
0.016332415041942
0.016187330857583
0.01600204363427
0.015777021393299
0.015513997783634
0.015221503220616
0.014909948051284
0.014567047722842
0.014162216883189
0.013693801500438
0.013199377795369
0.012701112862652
0.012175991394171
0.011596213126304
0.010967311717685
0.010310099927261
0.0096300864613165
0.008918236308062
0.0081700992575821
0.0073884579795631
0.0065783690033404
0.005739566414683
0.0048737967514377
0.0039793249449962
0.0030620193276982
0.0021164849241238
0.0011534348583078
0.018645552078681
0.018609155571321
0.018535222123426
0.018422078451315
0.018267376650647
0.018069791676894
0.017829898434894
0.017549001534229
0.017235656895666
0.016901167336764
0.016532809634865
0.016098370696743
0.015596208601266
0.015065222078402
0.014527526361411
0.013958868492228
0.013331005211461
0.012649969973049
0.011936685054472
0.011196247068561
0.010419190626251
0.0096011426273258
0.0087448151333847
0.0078553948903956
0.0069322063387244
0.0059773743804815
0.0049885682333378
0.0039726112806635
0.0029224757065251
0.0018509086954122
0.020890228189874
0.020851724707441
0.020773494043134
0.020653803450568
0.02049011027054
0.020281096037795
0.02002740400507
0.019729900529512
0.019397097008346
0.019040790335282
0.018647747333788
0.018184728277228
0.017650278790794
0.017083918648794
0.016507269869355
0.015895208732229
0.015219382082184
0.014486112664741
0.013716118695894
0.012914043986259
0.012070035720046
0.011179761282582
0.010245759629652
0.0092733151620434
0.0082612502889396
0.0072120647732362
0.0061226121993286
0.0050007949066252
0.0038374535840869
0.0026478587507793
0.023252888574561
0.023212539258161
0.02313054025778
0.023005096732011
0.022833512210648
0.022614495257764
0.022348676276063
0.022036435811803
0.021686042035344
0.021309515588107
0.020893399119977
0.020404007859033
0.01983995881026
0.019240668991073
0.018626927629911
0.017973077224787
0.017251026098677
0.016467274106595
0.015641929232226
0.01477895718482
0.013868149728382
0.012905246883897
0.011892472745199
0.010835044737103
0.009731152715329
0.0085836666605225
0.0073884785388053
0.0061546420589402
0.0048704757449044
0.003554106099773
0.025710483157367
0.0256686362692
0.025583570406426
0.025453433186148
0.025275383420519
0.025048142558204
0.024772294609935
0.024447699266258
0.024082244557569
0.023688046959355
0.023251621466775
0.022739194628033
0.022149398770587
0.021521009032272
0.020873578707099
0.020181074893257
0.019415999951693
0.018584951499677
0.017707030332843
0.016785316243866
0.015809321284966
0.014774891753804
0.013683781596863
0.012540957278463
0.011343879772598
0.010095745546767
0.0087913756870598
0.0074408781145867
0.0060298288670493
0.004578975728133
0.028240208845454
0.028197276313767
0.028109972853274
0.027976380406028
0.027793536744376
0.027560206793345
0.027276933806781
0.026943053559225
0.026565934226488
0.026157529266503
0.025704361336792
0.025172946575922
0.024562005453595
0.023909201568669
0.023232511578618
0.02250572432682
0.021702189983577
0.020828440871373
0.019902249312377
0.018925694561951
0.017888059502338
0.016785227250092
0.015618304150273
0.014391820381389
0.013102390194746
0.011753440857934
0.010338521578676
0.008868705143923
0.0073264495624863
0.0057349571569156
0.030819815690173
0.030776258151456
0.030687655032957
0.030552032058048
0.030366343774587
0.030129414088958
0.029841719026143
0.0295020382004
0.02911706355069
0.028698355536443
0.028232558166274
0.027686902227712
0.027060255854481
0.026388708076917
0.025688366426584
0.024933037695094
0.024097125502664
0.023186894521542
0.022218463630967
0.021192736797771
0.020098784978879
0.018932428102775
0.017694023802443
0.01638746211667
0.015008436086917
0.013560456837502
0.012035563013843
0.010445800979089
0.0087697392427919
0.007033285415743
0.033427968024787
0.033384285475709
0.033295398857837
0.033159294823657
0.032972872478532
0.032735005403405
0.032446064920274
0.032104263016799
0.031715535412226
0.031290927528921
0.030817351144096
0.030263092398115
0.029627122547071
0.028943431100155
0.028225924803537
0.027448626510893
0.026587291195123
0.025647828550111
0.024644446712013
0.023576673309019
0.022433375118341
0.02121015362864
0.019906558364064
0.018525553018868
0.017061885779785
0.015518953214969
0.013887040689959
0.01217924557689
0.010369583308241
0.0084854249185379
0.036044544877562
0.036001260734208
0.035913141821251
0.035778143148226
0.035593137930552
0.035357061992584
0.035070178409454
0.034730165710779
0.034342144302208
0.033916477800591
0.033440401006223
0.032883530531379
0.03224494612614
0.03155619177681
0.030828787871687
0.030037124846904
0.029158415346842
0.028198049225692
0.027168130759058
0.026066754819074
0.024882585380666
0.023610845076906
0.022250163880972
0.020802226758712
0.019261040543492
0.017629025652807
0.015895655535206
0.014073357393469
0.012133146503016
0.010103240667728
0.038650884295396
0.038608520251324
0.038522230700625
0.038389955784395
0.038208574506848
0.037977073696375
0.037695579396066
0.03736128700714
0.036978471213021
0.036556659083362
0.036083488994371
0.035530199390222
0.034895962400783
0.034209557940056
0.033480053551715
0.032682436858953
0.031795417629806
0.030823594651732
0.029776725442428
0.028651443277184
0.027436211812289
0.026125794075466
0.024717717928967
0.023212231546071
0.021602442996894
0.019889501983478
0.018062198747777
0.016131253753966
0.014066787538587
0.011895239325053
0.041230043537151
0.041189103326889
0.041105664994352
0.040977683137014
0.040802095100354
0.040577945372617
0.040305186320788
0.039980549964834
0.039607414913265
0.039194327515703
0.03872944761547
0.038185963739569
0.037563111758752
0.036886538274683
0.036162779587948
0.035367717828438
0.034481725640438
0.033508460160431
0.032455129904867
0.031316821698936
0.030081717339733
0.028744028474579
0.027299992694355
0.025748328238826
0.024080968244748
0.022297695327952
0.020386249165938
0.018355588723469
0.016174254939086
0.013866530775142
0.043766965575532
0.043727931368228
0.043648322898099
0.043526118283202
0.043358340425945
0.043144107920045
0.042883218977907
0.042572028127128
0.042213015511854
0.041813601462815
0.04136250177044
0.04083506858726
0.040230563925128
0.039571247401254
0.038861120979915
0.03807718002663
0.037201528074049
0.036236769343352
0.035187527781367
0.034047369155892
0.0328041538541
0.031451430787392
0.029984006743444
0.028399031399655
0.026686953544251
0.024846125739462
0.022862588180359
0.020743551668789
0.018455171851624
0.016019750015992
0.04624856220934
0.04621188384607
0.046137023878468
0.046021996000481
0.045863922224867
0.045661981796471
0.045415804239708
0.045121462104173
0.044780616157121
0.044399514138914
0.043967486745737
0.043462195486352
0.042882834842076
0.042248091403573
0.041559541591076
0.040795519416318
0.039939810706179
0.038993776038898
0.037959453325488
0.036828978624846
0.035589889627303
0.034234904240292
0.032757313782308
0.031152665064449
0.029409793209089
0.027525625468406
0.025483783149265
0.023289812975355
0.020905711605049
0.018352501931053
0.048663738294628
0.048629835205617
0.048560568025456
0.04845399240374
0.048307350797682
0.048119871421717
0.047890996826128
0.047616598815257
0.047297595216287
0.046939045135805
0.046530961153382
0.046053421597649
0.045505445807892
0.04490203824893
0.044242548725984
0.043506904389952
0.042680477683291
0.041763194227541
0.040754591246893
0.039645577538447
0.038423451666774
0.037079896613559
0.03560663706276
0.033997347064865
0.032239289904709
0.030327716271411
0.028243899820045
0.025991231802292
0.023526257613189
0.020865723074506
0.051003330673918
0.050972586981635
0.050909682847151
0.050812702113673
0.05067903770219
0.050507947923761
0.050298666624623
0.050046982139096
0.049753116041283
0.049420847644288
0.049040972527724
0.048596240787553
0.048085521035569
0.047520044874007
0.046897031286584
0.046198058116902
0.045409895725874
0.044530829651314
0.043558080317265
0.042481554824756
0.041288544029052
0.039969572979287
0.038515067337372
0.036916555205603
0.035159942923766
0.033238199031057
0.031130297641389
0.028838185141074
0.026311876394893
0.023562301224296
0.053260049833291
0.053232730403633
0.053176792301364
0.05309032534013
0.052970923036394
0.052817847422988
0.052630090722697
0.052403537593211
0.052137834517064
0.051835322853129
0.05148737126316
0.051079281389516
0.050609839216037
0.050087010123252
0.049506669346656
0.048852236469616
0.048111445488395
0.047280478084756
0.04635425274834
0.045321590742292
0.044169858376446
0.042888144243099
0.041466025209541
0.039892154322814
0.038152694242102
0.036236286542037
0.034121210406861
0.031804670370334
0.029235495625391
0.026422567327766
0.055428677079905
0.055404709464924
0.055355851917811
0.055280368027055
0.055175998590631
0.055041951094783
0.054876960506903
0.054677073653135
0.054441442450436
0.054171282593642
0.053858901126688
0.053491791509484
0.053067709383571
0.052590664409439
0.052055147624926
0.051447001602749
0.050755534707833
0.049975811072786
0.049101666794769
0.048120687256517
0.047019848345734
0.045785499172382
0.044407679809465
0.042871214731153
0.041164781423486
0.039266275055678
0.037161686567759
0.034821877257924
0.032211174470846
0.029304815477331
0.057507088297625
0.057486385153146
0.057444041191811
0.057379567877339
0.057290618240005
0.057176237228823
0.057034926906275
0.056863120312514
0.056659101800205
0.056422550532713
0.056147215151407
0.055823841561522
0.055450187398918
0.055026937119078
0.054545693637058
0.053990142306601
0.053348145633642
0.052614971770851
0.051786355262716
0.050853145866489
0.049805998139354
0.048630906718329
0.047317521085379
0.045842057260497
0.044193906304561
0.042337060383992
0.0402746342755
0.037936103356607
0.035314115871522
0.032190610062598
-0.0018728431473534
-0.0023604866115314
-0.0028525451580852
-0.0033480331137137
-0.003846001932711
-0.0043456202373087
-0.0048462908822117
-0.0053473181536894
-0.0058478314228092
-0.0063471297496721
-0.0068444684879768
-0.0073385747430393
-0.0078281371951489
-0.008312599793792
-0.0087917042767948
-0.0092644762070492
-0.0097294031351834
-0.010185492577245
-0.01063261847545
-0.011070890481982
-0.011500054033659
-0.011919474630274
-0.012328259101916
-0.012724884807758
-0.01310716188071
-0.013472766887246
-0.01382577691029
-0.014167053756984
-0.014495969897432
-0.014811581434902
-0.015112885854754
-0.015398984126392
-0.015669207214508
-0.015923121584788
-0.016160455745211
-0.016381056642964
-0.016584883363696
-0.016771941871849
-0.016942238244156
-0.01709579492625
-0.017232727689389
-0.017353215728499
-0.017457464185256
-0.01754562907038
-0.017617927852312
-0.017674408803381
-0.017715550631794
-0.017741211785477
-0.017752616531095
-0.017750522297066
-0.0017862380986584
-0.0022844299562575
-0.002787531825894
-0.0032939874805019
-0.0038026992779973
-0.0043128523233537
-0.0048236717081015
-0.0053343467039221
-0.0058442479668504
-0.0063528052061441
-0.0068589519564102
-0.0073611866375322
-0.007858439895353
-0.0083503674602204
-0.0088365143472097
-0.0093156808949986
-0.0097863932181849
-0.010247569248442
-0.010698488714463
-0.011138591736362
-0.011567289142577
-0.011983606141382
-0.012388597436029
-0.012785973527523
-0.013179375497447
-0.013571461928512
-0.013950783225842
-0.014311237543596
-0.014651107179485
-0.014970983248896
-0.015272548684273
-0.015557253223051
-0.015825568174542
-0.016077577033581
-0.016313484880853
-0.016533587431892
-0.016738146784547
-0.016927425311832
-0.017101717662552
-0.017261334856013
-0.017406479070746
-0.017537430180811
-0.017654616724255
-0.017758674361843
-0.017850263691501
-0.017930270156836
-0.017999269692289
-0.01805850452869
-0.018107836896722
-0.018146122810711
-0.001618410873279
-0.0021416524874487
-0.002670816394279
-0.003203226080926
-0.0037371694222294
-0.0042716907400845
-0.0048062830552299
-0.0053405756956452
-0.0058742433215767
-0.0064067979303362
-0.006937206126978
-0.0074640898587998
-0.0079865323752405
-0.0085042784429549
-0.009016978490682
-0.0095237184054514
-0.010023543449955
-0.010516068825831
-0.011001254389377
-0.011478672283246
-0.011947600124588
-0.012407715881007
-0.012856474193574
-0.013288519852267
-0.013697835632715
-0.014079316019411
-0.014443100190751
-0.014795826379182
-0.015138541588827
-0.015469073951344
-0.015784658221983
-0.016083557675273
-0.016365406700894
-0.016630137205346
-0.016877394828405
-0.017106811283318
-0.017318255730085
-0.017511845531891
-0.017687862612169
-0.017846860419293
-0.017989226208491
-0.018114971069746
-0.018224030040445
-0.018316751301481
-0.018393211470545
-0.01845326784928
-0.018496048894698
-0.018520652502274
-0.018525702800882
-0.018511797490385
-0.0013807169369935
-0.0019433743448701
-0.0025133992204013
-0.0030863461397009
-0.0036597260760092
-0.0042325645651062
-0.0048047477691853
-0.0053762408162284
-0.0059467363550403
-0.0065155381725421
-0.0070813567364862
-0.0076426051334832
-0.0081982153010428
-0.0087477391588587
-0.0092904650169802
-0.009824982678043
-0.010349819370384
-0.010864013430944
-0.011366808343051
-0.01185711261661
-0.012333438587766
-0.012794484581905
-0.013239907971413
-0.01367081872062
-0.014090653879473
-0.014503704328891
-0.014903043247562
-0.01528408321281
-0.01564613320056
-0.015990160420049
-0.016316818639407
-0.016626116241102
-0.016917769247167
-0.017191622113127
-0.017447705599631
-0.017686103337859
-0.017906853652169
-0.018109978917873
-0.018295442022692
-0.018463044427227
-0.018612767498627
-0.018745094719415
-0.018860426019477
-0.018959039465776
-0.019041186423435
-0.019107687753572
-0.01915951216155
-0.019198011853283
-0.019223062423634
-0.019232820041983
-0.0010774320724081
-0.0016923296732755
-0.0023163188460722
-0.0029423151199888
-0.0035666827568967
-0.0041883029802764
-0.0048074393280303
-0.0054244545994011
-0.0060391397063731
-0.0066506703100388
-0.0072576605739816
-0.0078585733122812
-0.0084524608668669
-0.0090389854905502
-0.0096175544075626
-0.010186917557595
-0.010745770844903
-0.011293248139976
-0.011828669881756
-0.012351328179415
-0.012860864779581
-0.013357521723606
-0.013841636189705
-0.0143127174141
-0.014768768277192
-0.015206500774105
-0.01562645990302
-0.016028784736077
-0.016412932650355
-0.016778343647698
-0.017124725669448
-0.017451930957371
-0.017759816474731
-0.018048238518499
-0.018317148756035
-0.018566571100277
-0.018796522863523
-0.019007024531546
-0.019198113977736
-0.019369936984198
-0.019522701916601
-0.019656753479928
-0.019772341399554
-0.01986991264897
-0.019949906809632
-0.020013158229274
-0.020060081559585
-0.020091174078631
-0.020104210117803
-0.020095344526623
-0.0007046719262667
-0.0013830833951027
-0.0020730580464926
-0.0027638243811798
-0.0034501847775142
-0.0041309375136454
-0.0048070172971739
-0.0054795000543638
-0.0061484869166347
-0.0068131246188833
-0.0074719349208285
-0.0081233517051754
-0.0087664113779908
-0.0094007304213527
-0.010025714701968
-0.010640206543485
-0.011243033198049
-0.011833506329348
-0.012411139568769
-0.012975137949196
-0.013524489704148
-0.014058395082063
-0.014576178221515
-0.015076765004908
-0.015558678140897
-0.016020866122941
-0.016463590232085
-0.016887030550237
-0.017290945301908
-0.017674848593122
-0.018038312366334
-0.018381089240151
-0.01870306403808
-0.019004179696386
-0.019284388865649
-0.019543667476407
-0.019782039275442
-0.019999639377269
-0.020196654580619
-0.020373359934466
-0.02052999116024
-0.020666908055499
-0.020784377170964
-0.02088280257509
-0.020962352519121
-0.021023401708638
-0.021065865423337
-0.0210899163657
-0.021093216850633
-0.021071142998363
-0.00026362892473987
-0.0010171989310467
-0.0017854920043916
-0.0025529768870713
-0.0033126232554283
-0.00406329730964
-0.0048068330285054
-0.0055451487337478
-0.006278631853135
-0.0070062769368321
-0.0077263795775795
-0.0084372323650991
-0.0091378019671982
-0.0098276884665301
-0.010506328337671
-0.011172606676977
-0.011825290607898
-0.012463468281109
-0.013086459916649
-0.013693491847471
-0.014283588101852
-0.01485575133517
-0.01540914204588
-0.01594310907119
-0.016457216843377
-0.016951349149117
-0.017424734533713
-0.017876956497874
-0.018307670357422
-0.018716478911714
-0.019103008448408
-0.019466990175324
-0.019808259173034
-0.020126726595577
-0.020422348144584
-0.020695139580539
-0.020945159053838
-0.021172559406398
-0.021377500651753
-0.021560257526346
-0.021721075442498
-0.021860376865714
-0.021978491431317
-0.022075916670423
-0.02215284473898
-0.022209712492775
-0.02224626793384
-0.022262664806049
-0.022255411191605
-0.022217687994009
0.0002529988169804
-0.00058739549270287
-0.0014468419372706
-0.0023034685800524
-0.0031479171234086
-0.0039792698990062
-0.0048005340393169
-0.0056146263474177
-0.0064222428105376
-0.0072221817533822
-0.0080124659499934
-0.0087912196343294
-0.0095573134467484
-0.010310330688795
-0.011049780556143
-0.011774594694145
-0.012483487562262
-0.013175522953935
-0.013850146358145
-0.014506763584595
-0.015144444561427
-0.015762060106802
-0.016358637455649
-0.016933565000003
-0.017486490285016
-0.018016983413827
-0.018524509918911
-0.019008402967589
-0.019468120810344
-0.019903327704615
-0.020313806345716
-0.020699375125553
-0.021059882492486
-0.021395256117019
-0.021705492298744
-0.021990670389672
-0.022250893746782
-0.022486359011643
-0.022697268545608
-0.022883954862018
-0.023046680945205
-0.023185871142905
-0.02330177183158
-0.023394865990293
-0.023465359660279
-0.023513915162834
-0.023540344356064
-0.023544872285393
-0.023522679676323
-0.023464240591162
0.00084921773031423
-8.9708299765147e-05
-0.0010532881674771
-0.0020114782478442
-0.0029521328860365
-0.0038748056933493
-0.0047840246834457
-0.0056838811214565
-0.0065753822707761
-0.007457059713479
-0.0083266149030413
-0.0091820087820627
-0.01002205911937
-0.010846393639359
-0.01165464130494
-0.01244580848636
-0.013218589679844
-0.013971991694761
-0.014705393285051
-0.015418131188382
-0.016109223654097
-0.016777497414613
-0.017421942582215
-0.018041947933752
-0.018637175441385
-0.019207222338823
-0.019751477599236
-0.020269269922897
-0.020760125753081
-0.021223804715882
-0.021660144642218
-0.022068976394008
-0.022450146551465
-0.022803592277546
-0.02312932171061
-0.023427430201716
-0.023698018260856
-0.023941287287548
-0.024157424118536
-0.024346774989917
-0.024509613073716
-0.02464646279277
-0.02475767710761
-0.024843987719311
-0.024905712064871
-0.02494365688909
-0.024957239845212
-0.024946372486255
-0.024904483198003
-0.024819425675803
0.0015350052552553
0.00048551954400357
-0.00059594556076124
-0.0016688722051876
-0.0027177244855262
-0.003742858198503
-0.0047507616462149
-0.0057468979148293
-0.0067325614933499
-0.0077059261242925
-0.0086643224222616
-0.0096055595223955
-0.010528439647278
-0.011432650315557
-0.012317939805927
-0.013183414261843
-0.0140277647354
-0.014849865513892
-0.015648862518827
-0.016423876158061
-0.01717388255217
-0.017897862807613
-0.018594988159289
-0.01926466938705
-0.01990642757058
-0.020519688397888
-0.021103928761748
-0.021658595156286
-0.022183278339289
-0.022677723076505
-0.02314172718819
-0.02357511553857
-0.023977752361348
-0.024349599371957
-0.024690673584075
-0.025001083656465
-0.025280933822412
-0.025530450876473
-0.025749827025012
-0.025939474772182
-0.026099694182602
-0.026231098568958
-0.026334020129547
-0.026409256113876
-0.026456979437403
-0.026478133774603
-0.026471921364675
-0.026438459730066
-0.026369748335701
-0.026251288080307
0.0023208211871701
0.0011482891730284
-6.5706577720772e-05
-0.0012672836945673
-0.0024368258165814
-0.0035759558496387
-0.0046936657444904
-0.0057970152265799
-0.0068875661404349
-0.007963055155045
-0.00902041122193
-0.010057305652883
-0.011072526495142
-0.012065786421827
-0.013036888431927
-0.013984928472377
-0.014908458681643
-0.015806161628934
-0.016677043751475
-0.01752020901909
-0.01833476698115
-0.019119884015145
-0.019874787905233
-0.020598764960302
-0.021291181678228
-0.021951454031059
-0.022579067095071
-0.023173534703099
-0.023734466224953
-0.024261578278406
-0.024754647451608
-0.025213511628533
-0.02563805736431
-0.026028262905282
-0.026384146356597
-0.02670583709338
-0.026993449254799
-0.02724725497094
-0.027467454613995
-0.027654514153219
-0.027808700099877
-0.027930669620054
-0.028020668873036
-0.028079595129094
-0.028107522215516
-0.02810562373317
-0.028072786661703
-0.02800928389778
-0.027905459287136
-0.027744611461191
0.003217024107394
0.0019085563381931
0.00054660651749485
-0.00079810243996679
-0.0021011990800777
-0.0033662567211777
-0.0046054272471952
-0.0058275483742167
-0.0070343304753564
-0.0082229234196126
-0.0093897911898819
-0.010532470734094
-0.011649741886073
-0.012741302932156
-0.013806932955198
-0.014845660062244
-0.015855919231038
-0.016836331196252
-0.017785966548147
-0.018704029054583
-0.019589632537749
-0.020441854393029
-0.021259837960826
-0.022042832510536
-0.022790182336459
-0.023501288736034
-0.024175618466552
-0.024812689838074
-0.025412106733855
-0.025973571639641
-0.02649685369971
-0.026981802669888
-0.027428315980801
-0.027836383541805
-0.028206018397025
-0.028537365594548
-0.028830533009569
-0.029085825678614
-0.029303427673074
-0.029483865505039
-0.02962738700976
-0.029734760377236
-0.029806191825229
-0.029842760756117
-0.029844417042327
-0.029812568574083
-0.029745674053784
-0.029644168693319
-0.029496537587543
-0.02928394055167
0.0042369586582563
0.0027790138438527
0.0012525504340552
-0.0002505995036541
-0.0017005825576371
-0.0031038808268703
-0.0044766750170954
-0.0058298001797142
-0.0071649175027398
-0.0084783232849836
-0.0097658450607353
-0.011024829047395
-0.012254071847842
-0.013453312438018
-0.014622387895631
-0.015760392874543
-0.016865770731468
-0.017937089044926
-0.018973352178273
-0.019973661916291
-0.02093697267787
-0.021862243613809
-0.022748628338355
-0.023595433651613
-0.024401987689538
-0.025167565375347
-0.025891701878023
-0.026573921464851
-0.027213814749472
-0.027811066110028
-0.028365427391528
-0.028876744516892
-0.029344908760722
-0.029769909369836
-0.030151740884294
-0.030490552505734
-0.030786432263402
-0.03103971261421
-0.031250562482327
-0.031419577766918
-0.031547001116648
-0.031633721479774
-0.031679907386218
-0.031686786715106
-0.031654197750801
-0.03158378015491
-0.031473749796089
-0.031324758487127
-0.031123727633761
-0.030849647430694
0.0053934013261604
0.0037720650293091
0.002063409428815
0.00038563416568026
-0.0012250832078818
-0.0027793435501324
-0.0042982873649808
-0.0057948816190011
-0.0072705703857278
-0.0087207102078716
-0.010140503702153
-0.011527113812287
-0.012879317152004
-0.01419681970973
-0.015479427149529
-0.016726224472428
-0.017935606137022
-0.019106029080748
-0.020236392932438
-0.021325747777108
-0.022373035812348
-0.02337722253837
-0.024337457507367
-0.02525299957637
-0.026123101523439
-0.026947044173125
-0.027724256679215
-0.028454253004652
-0.029136609844586
-0.029770990848299
-0.030357124115683
-0.030894838212615
-0.03138400124174
-0.031824590022143
-0.032216577062148
-0.032560111898959
-0.032855256721508
-0.033102363394596
-0.03330157038686
-0.033453532371048
-0.033558463920251
-0.033617389837801
-0.033630456263333
-0.033599095596673
-0.033523067258097
-0.033404194255881
-0.033240488732228
-0.033032736570052
-0.032766672768739
-0.03241935712995
0.0066988136733361
0.0048999612134409
0.0029910398219818
0.001122271655383
-0.00066325042990659
-0.002381809814827
-0.0040604578020801
-0.0057141070959051
-0.0073434265971411
-0.0089425527317651
-0.010506182701601
-0.01203160478115
-0.013517806787233
-0.014964495357897
-0.016371327844001
-0.017737204659469
-0.019060301657244
-0.020338844851127
-0.021571592908781
-0.022757588831006
-0.023895818836402
-0.024985247452112
-0.026024979101516
-0.02701423206888
-0.027952231008885
-0.028838131127563
-0.029671446569723
-0.030451621935444
-0.031178155941
-0.031850666063453
-0.03246884947649
-0.033032513525104
-0.033541497161549
-0.033995756831755
-0.034395233111631
-0.034740081058675
-0.035030328525346
-0.035266370853036
-0.035448268379712
-0.035576773387188
-0.035651950110797
-0.035675032753924
-0.035645951600213
-0.035566530965618
-0.035436292378197
-0.035257537894967
-0.035027968709805
-0.03474864508907
-0.034404388272801
-0.033970549193308
0.0081660932609734
0.0061739422435525
0.004045770681181
0.0019699462482467
-3.9447816526825e-06
-0.0018999032908491
-0.0037519328208372
-0.0055768871579645
-0.0073742053945876
-0.0091362890016309
-0.010856951989918
-0.012533451167639
-0.014165008714265
-0.015751446213032
-0.017292429571178
-0.018786840083125
-0.020232757572499
-0.021628222740497
-0.022971831243356
-0.024262550265968
-0.025499297831661
-0.026680902456612
-0.027806322669046
-0.028874700322017
-0.029885245875334
-0.030837092755521
-0.031729711448484
-0.032562494710874
-0.033334876464608
-0.03404640330906
-0.03469670565308
-0.035285547355888
-0.035812736686095
-0.03627821681069
-0.036681890760065
-0.037023921760968
-0.037304291597031
-0.03752348573676
-0.037681454336215
-0.037779150976884
-0.037816361891896
-0.037794714691377
-0.037713595381314
-0.037575550255992
-0.037379276490181
-0.037128199175212
-0.036818974862694
-0.036453771668822
-0.036016025181449
-0.035480159497433
0.0098044344758157
0.0076033300478013
0.0052372406451835
0.0029384395721812
0.00076252199586018
-0.0013240477155377