/*--------------------------------*- C++ -*----------------------------------*\
| =========                 |                                                 |
| \\      /  F ield         | OpenFOAM: The Open Source CFD Toolbox           |
|  \\    /   O peration     | Version:  2112                                  |
|   \\  /    A nd           | Website:  www.openfoam.com                      |
|    \\/     M anipulation  |                                                 |
\*---------------------------------------------------------------------------*/
FoamFile
{
    version     2.0;
    format      ascii;
    arch        "LSB;label=32;scalar=64";
    class       surfaceScalarField;
    location    "2";
    object      phi;
}
// * * * * * * * * * * * * * * * * * * * * * * * * * * * * * * * * * * * * * //

dimensions      [0 3 -1 0 0 0 0];

oriented        oriented;

internalField   nonuniform List<scalar> 
43645
(
0.3951236417405
-4.7686573062957e-06
0.39513750289351
-1.3861130472959e-05
0.39516007126914
-2.2568351291499e-05
0.39519094508844
-3.0873794207907e-05
0.39522981236763
-3.8867253984726e-05
0.39527652740057
-4.6715008026336e-05
0.39533080317363
-5.4275748640949e-05
0.39539231876528
-6.1515567807856e-05
0.39546106639013
-6.8747601654733e-05
0.39553714838911
-7.6081976461144e-05
0.39562039475224
-8.3246341299381e-05
0.39571006904729
-8.9674273911545e-05
0.39580514670822
-9.5077640481736e-05
0.39590529537633
-0.00010014864836534
0.39601174626294
-0.00010645086753972
0.39612733709231
-0.00011559081096293
0.39625583464906
-0.00012849753898693
0.39640106989312
-0.0001452352268913
0.39656596947122
-0.00016489956151575
0.39675197633448
-0.00018600684720449
0.39695853730282
-0.00020656095277519
0.39718361720909
-0.00022507989116977
0.39742372600407
-0.00024010878029247
0.3976752786733
-0.00025155265492355
0.39793400190097
-0.00025872321370444
0.39819720914178
-0.00026320722715359
0.39846102732958
-0.00026381817441939
0.39872502165854
-0.00026399431600791
0.39898499301264
-0.00025997134165376
-0.00025896807411864
0.39924396109914
0.37294709258955
-9.3064701117135e-06
0.37296035092546
-2.7119428319429e-05
0.37298193692369
-4.4154310810456e-05
0.37301148222517
-6.0419057076561e-05
0.37304874183374
-7.6126824492764e-05
0.37309353888217
-9.1512019149475e-05
0.37314576786733
-0.00010650469735156
0.37320512203858
-0.00012086970352526
0.3732711159351
-0.00013474146359685
0.37334363320313
-0.00014859921088766
0.3734228448378
-0.00016245794337006
0.37350856141624
-0.00017539082075144
0.37359994286459
-0.00018645905825674
0.37369625619787
-0.00019646195206247
0.37379808326455
-0.00020827790562549
0.37390798831973
-0.00022549583851293
0.37402999951825
-0.00025050871080024
0.37416846652024
-0.00028370220303877
0.3743267028671
-0.00032313588337026
0.37450621651752
-0.00036552047339325
0.37470629100521
-0.00040663541695028
0.37492459062066
-0.00044337948375585
0.37515734367012
-0.00047286180750429
0.37540082919764
-0.00049503816074046
0.37565080360104
-0.00050869759591204
0.37590462422506
-0.0005170278304423
0.37615863361618
-0.00051782754522455
0.37641254973241
-0.00051791041257529
0.37666249184431
-0.00050991343490547
-0.00050801401681567
0.37691153780579
0.35201543684774
-1.3845755087727e-05
0.35202863805749
-4.0320598559853e-05
0.35205013339728
-6.5649610928263e-05
0.35207951830428
-8.9803924873626e-05
0.35211641790819
-0.00011302638999405
0.35216062426759
-0.00013571834107697
0.35221203121583
-0.0001579116091263
0.3522703873512
-0.00017922580348322
0.35233537123581
-0.00019972531386282
0.35240687308467
-0.00022010102650755
0.35248490450992
-0.00024048933648576
0.35256912721383
-0.00025961349363277
0.35265873690106
-0.0002760687155608
0.35275311281186
-0.00029083783402321
0.352852824158
-0.0003079892239604
0.35296027693866
-0.00033294859237003
0.3530793756872
-0.00036960743348145
0.35321448191895
-0.00041880840982084
0.35336898815622
-0.00047764209647196
0.35354446617393
-0.00054099846768449
0.35374019358059
-0.0006023628008634
0.35395377637893
-0.00065696225994826
0.35418134692435
-0.00070043233132449
0.35441913059511
-0.00073282181037737
0.35466284167721
-0.00075240865729875
0.35490991703434
-0.00076410316724023
0.35515674941812
-0.00076465990899155
0.35540323988772
-0.00076440086272705
0.35564545673327
-0.00075213026200045
-0.00074911031917967
0.35588655305438
0.33225861965292
-1.8421413279575e-05
0.3322719278897
-5.3628799000799e-05
0.33229356597925
-8.7287663984786e-05
0.33232304441782
-0.00011928232737914
0.33235996197286
-0.00014994390968101
0.3324041186542
-0.00017987498791077
0.33245538117094
-0.00020917409227156
0.33251353649175
-0.00023738109164329
0.332578349083
-0.00026453787345719
0.33264973148669
-0.00029148339955477
0.3327276278688
-0.0003183856889704
0.33281164474144
-0.00034363033768675
0.33290101448317
-0.00036543842971775
0.33299517274581
-0.00038499607010054
0.33309464881328
-0.00040746526584088
0.33320168500658
-0.0004399847609991
0.33332000043552
-0.00048792283861991
0.33345385440566
-0.00055266235697416
0.33360663296187
-0.00063042063042861
0.33377996872228
-0.00071433420651797
0.33397316205871
-0.00079555611631795
0.33418381602867
-0.00086761620947232
0.33440801224372
-0.00092462852640928
0.33464196664234
-0.00096677618944504
0.33488136286003
-0.00099180485577459
0.33512377110588
-0.0010065113941985
0.33536561893684
-0.0010065077213085
0.33560704870903
-0.0010058306167759
0.33584412666885
-0.00098920820457407
-0.00098545591694883
0.33608047228425
0.31361070610258
-2.3070104077076e-05
0.31362422534973
-6.7148013045832e-05
0.31364617655306
-0.00010923883420831
0.31367603137233
-0.00014913711404912
0.31371335396275
-0.00018726646824817
0.31375789107843
-0.00022441207258752
0.31380949547809
-0.0002607784618493
0.31386795540613
-0.00029584099055035
0.31393304515614
-0.000329627595292
0.31400464942058
-0.00036308763682813
0.31408265400395
-0.00039639024615148
0.31416667039215
-0.00042764670070115
0.31425599527047
-0.00045476328380696
0.3143500853202
-0.00047908609655547
0.31444939523638
-0.00050677515961366
0.31455610685944
-0.00054669636250692
0.31467403401295
-0.00060584997132402
0.31480769641961
-0.00068632474355312
0.31496073029548
-0.00078345448682307
0.31513482897536
-0.00088843286749829
0.31532905068739
-0.00098977780990405
0.31554057025998
-0.0010791357640521
0.31576495546369
-0.0011490137124182
0.31599809652902
-0.0011999172373743
0.31623549434445
-0.0012292026540015
0.31647491397722
-0.0012459310099606
0.31671294868697
-0.0012445424141673
0.31695029466638
-0.0012431765796732
0.31718310311277
-0.0012220166351582
-0.0012180943786498
0.31741574159079
0.29600943935939
-2.7807574085923e-05
0.29602319476881
-8.0903391925777e-05
0.29604547735376
-0.00013152138867071
0.29607571426038
-0.00017937399065799
0.29611344510109
-0.00022499727961125
0.29615841175605
-0.00026937869897194
0.29621039074149
-0.0003127574195169
0.29626918792844
-0.00035463815057988
0.29633469550987
-0.00039513515065739
0.29640690018141
-0.00043529228320654
0.29648571031915
-0.00047520035960625
0.2965707183203
-0.00051265467848361
0.29666119168334
-0.00054523662432887
0.29675657593102
-0.00057447032260097
0.29685732822604
-0.00060752743376854
0.29696557779101
-0.00065494590739616
0.29708494659551
-0.00072521875639989
0.29721965199921
-0.00082103012849433
0.2973730090196
-0.00093681148898285
0.29754651315799
-0.0010619369881813
0.29773918322477
-0.0011824478593588
0.29794836860345
-0.0012883211257803
0.29816988224151
-0.0013705273337812
0.29839997097211
-0.0014300059515442
0.29863433296919
-0.0014635646347646
0.29887103992236
-0.0014826379469739
0.29910661896619
-0.0014801214418882
0.29934210455665
-0.001478662154337
0.29957322198251
-0.0014531340458456
-0.0014498525432698
0.29980498016294
0.2793960501046
-3.2623132687116e-05
0.27941002542369
-9.4878684076954e-05
0.27943263669044
-0.00015413262857786
0.27946327235552
-0.00021000962938497
0.27950145561856
-0.0002631805169041
0.27954685328394
-0.0003147763393258
0.27959925003982
-0.00036515415108749
0.27965844966634
-0.00041383775359357
0.27972432208181
-0.00046100754337232
0.27979682433005
-0.00050779450952205
0.27987582066145
-0.00055419666985667
0.27996085648146
-0.00059769047816715
0.2800512917915
-0.00063567191477665
0.28014683092288
-0.00067000943516206
0.28024812862806
-0.00070882512077122
0.28035716801823
-0.00076398528008796
0.28047696897684
-0.00084501969804675
0.28061089934999
-0.0009549604852491
0.28076157334861
-0.0010874854715929
0.28093034230784
-0.0012307059318326
0.28111670832299
-0.0013688138591684
0.28131899324172
-0.0014906060294662
0.28153403125542
-0.0015855653325489
0.28175896366352
-0.001654938344874
0.28198989229543
-0.0016944932519096
0.28222509349295
-0.0017178391298073
0.28246074644491
-0.0017157743790572
0.28269778962226
-0.0017157053171351
0.28293124463831
-0.0016865890477816
-0.0016849909603753
0.28316638307026
0.26371509004029
-3.7503699607682e-05
0.26372925959083
-0.00010904821043436
0.2637521337105
-0.00017700672416647
0.26378304426359
-0.00024092015881122
0.26382142457121
-0.00030156080136649
0.26386695185636
-0.00036030360192714
0.26391937843381
-0.00041758070657244
0.26397853156979
-0.00047299086828439
0.26404440786067
-0.00052688381359077
0.26411707688361
-0.00058046351252963
0.26419639712225
-0.00063351688919312
0.26428188441643
-0.00068317775376549
0.26437293132445
-0.00072671880483145
0.26446930593475
-0.0007663840281957
0.26457165074099
-0.00081116991028119
0.2646818017769
-0.00087413629988339
0.26480253510635
-0.00096575301180312
0.2649370120559
-0.0010894374196309
0.2650877352243
-0.0012382086251238
0.26525605149219
-0.001399022185244
0.26544146153771
-0.0015542238903765
0.2656423220069
-0.0016914664846193
0.26585545919466
-0.0017987025063104
0.26607814121391
-0.0018776203502867
0.26630654960061
-0.0019229016247061
0.26653929715298
-0.0019505866683169
0.2667726670298
-0.0019491442418579
0.26700808013487
-0.0019511184083727
0.26724043756107
-0.0019189464604893
-0.0019200831989098
0.26747552981393
0.24891420212129
-4.2413110623211e-05
0.2489284296573
-0.00012327572549109
0.24895135070415
-0.0001999277501568
0.24898227856053
-0.0002718479947072
0.24902067127115
-0.00033995349191723
0.24906614925597
-0.00040578156720765
0.24911845260002
-0.00046988403155486
0.24917740504018
-0.00053194328996416
0.24924298571932
-0.00059246447474688
0.24931527860267
-0.00065275637852024
0.24939421364386
-0.00071245191352128
0.24947937278463
-0.00076833687831957
0.2495701352214
-0.00081748122584959
0.24966622438589
-0.00086247317753486
0.2497683474437
-0.00091329295334373
0.24987855835442
-0.00098434719639084
0.24999981798043
-0.0010870126239078
0.25013520371409
-0.0012248231398277
0.25028674813208
-0.0013897530298322
0.25045513549607
-0.0015674095362949
0.25063927529754
-0.0017383636789526
0.25083733874606
-0.0018895299204757
0.25104634996233
-0.0020077137098463
0.25126421025315
-0.0020954806284931
0.2514877275168
-0.0021464188755591
0.25171629878763
-0.0021791579263629
0.25194646749127
-0.002179312932445
0.2521802202135
-0.0021848711176802
0.25241200396827
-0.0021507302025201
-0.0021564525905232
0.25264837337353
0.23494398751608
-4.7313048835297e-05
0.23495818221406
-0.00013747040500822
0.23498101154393
-0.00022275706161873
0.23501176525622
-0.00030260168889629
0.23504982176496
-0.00037800998287207
0.23509479352416
-0.00045075330904429
0.23514643131083
-0.00052152180121179
0.23520458264979
-0.00059009461239044
0.23526924846899
-0.00065713027778293
0.23534056948029
-0.00072407737418385
0.23541856348814
-0.00079044590611766
0.23550282814601
-0.00085260152147533
0.23559268433301
-0.00090733739849271
0.2356878673436
-0.00095765617430471
0.23578923124946
-0.0010146568456873
0.23589897883278
-0.0010940947666715
0.23601997203773
-0.0012080058160429
0.23615483637884
-0.0013596874685225
0.23630490337734
-0.001539820016023
0.23647026384376
-0.0017327699907362
0.23664962112255
-0.0019177209457452
0.23684152362632
-0.0020814324124598
0.23704374015292
-0.0022099302245419
0.23725515060053
-0.002306891064311
0.23747329846495
-0.0023645667279411
0.23769819197609
-0.0024040514254609
0.23792641853906
-0.0024075394830224
0.23816010517878
-0.0024185577451043
0.23839318890355
-0.0023838139150625
-0.0023956881566451
0.23863242448288
0.22175781361723
-5.2156860594816e-05
0.22177183647388
-0.00015149324566873
0.22179433905296
-0.00024525962471798
0.22182459384096
-0.00033285646117327
0.22186195930505
-0.0004153754314533
0.22190601245088
-0.0004948064397109
0.22195652449072
-0.00057203382613122
0.2220133753072
-0.00064694541434552
0.22207660839874
-0.00072036335505975
0.22214639507535
-0.00079386403696142
0.22222275974785
-0.00086681056505575
0.22230535016361
-0.00093519192413555
0.2223936157159
-0.00099560293792029
0.22248741189658
-0.0010514523425998
0.22258757081882
-0.0011148157557347
0.22269608840413
-0.0012026123402236
0.22281551338602
-0.0013274307862975
0.22294823246691
-0.0014924065381561
0.22309551183455
-0.0016870993724238
0.22325758173291
-0.0018948398781652
0.22343336113442
-0.0020935003362302
0.22362164369509
-0.0022697149623185
0.22382033048813
-0.0024086170065606
0.22402843965744
-0.0025150002226977
0.22424353359368
-0.0025796606529492
0.22446578233831
-0.0026263001588213
0.22469180193849
-0.0026335590715054
0.22492399203608
-0.0026507478310328
0.22515631339519
-0.0026161352624452
-0.0026351878134413
0.22539581306476
0.20931167034753
-5.6895244494114e-05
0.20932536263465
-0.0001651855186777
0.2093473087416
-0.00026720571750396
0.20937676643095
-0.00036231413656175
0.20941309873925
-0.00045170772592152
0.2094558581607
-0.00053756584759893
0.20950478741218
-0.00062096306419731
0.20955981382124
-0.0007019718103125
0.20962104158473
-0.00078159110560933
0.20968864282088
-0.00086146526054769
0.20976262896037
-0.00094079669214565
0.2098427220534
-0.0010152850051666
0.20992853742263
-0.0010814182953213
0.21002006989025
-0.0011429847988043
0.21011811208825
-0.0012128579424366
0.21022442872706
-0.0013089289681607
0.21034128449466
-0.0014442865430756
0.21047092263661
-0.0016220446696562
0.21061467209926
-0.0018308488246035
0.21077297651799
-0.0020531442867257
0.21094495151685
-0.0022654753248001
0.21112950787149
-0.0024542713068851
0.2113245165817
-0.0026036257064476
0.21152897795264
-0.0027194615834331
0.21174040442028
-0.0027910871099949
0.21195913861085
-0.0028450343387668
0.21218187745427
-0.0028562979037958
0.21241146269114
-0.0028803330567502
0.21264185621644
-0.0028465287764002
-0.0028740571295423
0.21288072554499
0.19756402193486
-6.1480637289294e-05
0.19757726073015
-0.00017842430141614
0.19759844054771
-0.00028838552243404
0.19762682557266
-0.00039069914902257
0.19766175844969
-0.00048664059051314
0.19770277232701
-0.00057857971271165
0.19774961553765
-0.0006678062626891
0.19780225395981
-0.000754610220595
0.19786082754269
-0.0008401646766914
0.19792552609801
-0.00092616380438838
0.19799638535184
-0.0010116559345909
0.1980732127204
-0.0010921123627034
0.19815577357968
-0.0011639791436623
0.19824419318341
-0.0012314043919809
0.19833926430046
-0.0013079290490018
0.19844259685838
-0.0014122615159918
0.19855621853372
-0.0015579082083343
0.19868216278069
-0.0017479889069245
0.19882166437289
-0.0019703504070497
0.19897518984468
-0.0022066697490798
0.19914197312617
-0.0024322585967064
0.19932106797953
-0.0026333661508949
0.199510512566
-0.0027930702832958
0.19970946234023
-0.002918411348145
0.19991561475962
-0.002997239519448
0.20012954346871
-0.003058963037871
0.20034809114448
-0.0030748455689774
0.20057448018094
-0.0031067220825351
0.20080262379178
-0.0030746723762482
-0.0031121527310744
0.2010407194055
0.18647566546771
-6.5868724028775e-05
0.18648831616732
-0.0001910749895499
0.18650852777637
-0.00030859711987721
0.18653555880599
-0.00041773016713298
0.18656874022792
-0.0005198220009492
0.18660759679471
-0.00061743626818696
0.18665189751939
-0.00071210697606994
0.18670164317227
-0.00080435586242241
0.18675701505408
-0.00089553654747395
0.18681822743981
-0.0009873761793912
0.18688534056627
-0.0010787690503567
0.1869582337097
-0.0011650054957896
0.18703679487126
-0.001242540294918
0.18712125661862
-0.0013158661294057
0.18721241978558
-0.0013990922060612
0.18731177454341
-0.0015116162643231
0.18742114921967
-0.0016672828750862
0.18754236721452
-0.0018692068926676
0.18767654379447
-0.002104526977833
0.18782410397303
-0.0023542299188331
0.18798439589986
-0.0025925505145753
0.18815658754285
-0.0028055577852028
0.18833901348121
-0.0029754962126923
0.18853096313221
-0.0031103609903093
0.18873056064173
-0.0031968370196705
0.18893843183174
-0.0032668342185075
0.18915186954718
-0.0032882832743626
0.18937420824556
-0.0033290607706919
0.18959939167391
-0.0032998557938913
-0.0033489137195138
0.18983615267435
0.17600959879347
-7.001874727254e-05
0.17602154327432
-0.00020301945962423
0.17604059751803
-0.00032765135265976
0.17606602203673
-0.00044315467497704
0.17609715597521
-0.00055095592855235
0.1761335296796
-0.00065380996189263
0.17617491673748
-0.00075349402327013
0.17622133732395
-0.00085077643845618
0.17627301629392
-0.00094721550702583
0.17633017809821
-0.0010445379735649
0.17639290918258
-0.0011415001246504
0.17646116564758
-0.0012332619510443
0.1765349647516
-0.0013163393892194
0.17661465410455
-0.0013955554730074
0.17670104640766
-0.0014854844998428
0.17679551265056
-0.0016060824982975
0.17689967802449
-0.0017714482401003
0.17701514914491
-0.0019846780045935
0.17714290582531
-0.0022322836497028
0.17728331901606
-0.002494643101462
0.17743584673028
-0.0027450782205475
0.1775997973563
-0.0029695084032935
0.17777385392534
-0.0031495527735355
0.17795747522836
-0.0032939822852983
0.17814933041037
-0.0033886921931322
0.17834993514262
-0.0034674389421072
0.17855743841336
-0.0034957865356668
0.17877446058109
-0.0035460829286834
0.17899625490338
-0.0035216501057483
-0.0035838866313139
0.17923122782706
0.16613089889742
-7.3895654864365e-05
0.16614204411945
-0.00021416467124504
0.16615979327679
-0.00034540049943235
0.16618341289278
-0.00046677428048033
0.16621225484165
-0.00057979786695987
0.16624586079183
-0.00068741590181363
0.16628400945855
-0.00079164267979634
0.16632673518792
-0.00089350215793105
0.16637426982131
-0.00099475013060497
0.16642688929806
-0.001097157440847
0.16648471972114
-0.0011993305383228
0.16654778769913
-0.0012963299200021
0.16661621625837
-0.0013847679394711
0.16669043977518
-0.0014697789812111
0.16677126730013
-0.0015663120162232
0.16685995287741
-0.0016947680674286
0.16695793195929
-0.0018694273138605
0.1670666010119
-0.0020933470495429
0.16718681041302
-0.0023524930431666
0.16731889758515
-0.0026267302664032
0.16746245392542
-0.0028886345535659
0.1676169860607
-0.0031240405316913
0.16778153220449
-0.0033140989102061
0.1679557848372
-0.0034682349110605
0.16813887742625
-0.0035717847746999
0.16833133832382
-0.0036598998320141
0.16853201925927
-0.0036964674625287
0.16874288306509
-0.0037569467253977
0.16896080703907
-0.003739574069659
-0.0038156646845225
0.16919258510408
0.15680660569843
-7.7472653606636e-05
0.15681687744973
-0.00022443641226752
0.15683319715956
-0.00036172019885697
0.15685484940441
-0.00048842651510485
0.15688120654533
-0.00060615499776761
0.15691183185164
-0.00071804119835327
0.15694650030639
-0.00082631112497161
0.15698524577362
-0.00093224761600953
0.15702832201114
-0.001037826359195
0.15707603482632
-0.0011448702475592
0.1571285613673
-0.0012518570710015
0.1571860061783
-0.0013537747231354
0.1572485777672
-0.0014473395206087
0.15731675568443
-0.0015379568910923
0.15739131077675
-0.0016408671012667
0.15747336944833
-0.0017768267321854
0.15756420450112
-0.0019602623598948
0.15766503738171
-0.0021941799238653
0.15777663738515
-0.0024640930404119
0.15789934690992
-0.0027494397854947
0.15803292197021
-0.0030222096081729
0.15817708248346
-0.0032682010396977
0.15833120777511
-0.0034682241964127
0.15849522722761
-0.0036322543583029
0.15866865703288
-0.003745214574143
0.15885211672801
-0.0038433595210084
0.15904494480971
-0.0038892955369665
0.15924877598405
-0.0039607778916422
0.15946161673164
-0.0039524148077791
-0.0040432326715307
0.1596891847303
0.14800560920966
-8.0730923430255e-05
0.14801494737337
-0.00023377456548199
0.14802975459766
-0.0003765274126401
0.14804932297367
-0.00050799488099457
0.14807304861547
-0.0006298806298038
0.14810052308248
-0.00074551565617885
0.14813153940562
-0.00085732743939712
0.14816612829205
-0.00096683649439221
0.14820455173957
-0.001076249799138
0.14824713182895
-0.0011874503300104
0.14829409007365
-0.0012988153091124
0.14834561392067
-0.0014052985641277
0.1484019873014
-0.0015037128955152
0.14846370030679
-0.0015996698911365
0.14853143719545
-0.0017086039847094
0.14860615225213
-0.0018515417841152
0.14868895424122
-0.0020430643443616
0.14878092110096
-0.002286146779514
0.14888281658401
-0.0025659885194994
0.14899505852305
-0.0028616817211406
0.14911762702299
-0.0031447781047993
0.14925047547468
-0.0034010494885625
0.14939329565467
-0.0036110443734388
0.14954626972376
-0.0037852284246162
0.1497091772147
-0.0039081220616822
0.14988282629416
-0.0040170085966053
0.15006685186507
-0.0040733211026336
0.15026280755038
-0.0041567335704314
0.150469311024
-0.004158918272914
-0.0042658409520917
0.15069191931587
0.13969854474141
-8.3658394222511e-05
0.139706920978
-0.00024215079048306
0.13972016896007
-0.00038977538326091
0.13973759966497
-0.00052542557516062
0.13975862152319
-0.00065090247808454
0.13978285026156
-0.00076974438560353
0.1398101065523
-0.00088458372208894
0.13984042170007
-0.00099715163518132
0.13987403849786
-0.001109866590759
0.13991129329306
-0.0012247051199785
0.13995248066574
-0.0013400026771507
0.13999789990403
-0.0014507177984871
0.14004788704188
-0.0015537000297977
0.14010287049149
-0.0016546533377164
0.14016337323693
-0.0017691067273378
0.14023013470413
-0.0019183032489966
0.14030411776864
-0.002117047406746
0.14038630242196
-0.0023683314312497
0.14047753599899
-0.0026572220951754
0.14057836760165
-0.0029625133230477
0.14068907683771
-0.0032554873403006
0.14080984672279
-0.0035218193736204
0.14094066225046
-0.0037418599010597
0.14108195042951
-0.0039265166037963
0.14123364849472
-0.0040598201264102
0.14139682078177
-0.0041801808825391
0.14157125034543
-0.0042477506635598
0.14175866132441
-0.0043441445448823
0.1419580238838
-0.0043582808251316
-0.0044821384616623
0.14217432140411
0.13185769654634
-8.6250197572063e-05
0.13186509552744
-0.00024954975674412
0.13187676484498
-0.00040144468602448
0.13189204096122
-0.00054070167774171
0.13191034622199
-0.00066920772659185
0.13193131717117
-0.000790715324117
0.13195481762733
-0.00090808416907123
0.13198087494238
-0.0010232089426124
0.13200966459474
-0.0011386562367573
0.13204150933474
-0.001256549854887
0.13207680649306
-0.001375299831264
0.13211600645824
-0.0014899177603495
0.13215950199157
-0.001597195560336
0.13220756845184
-0.0017027197958179
0.1322604396429
-0.0018219779165386
0.13231855462911
-0.0019764182338932
0.1323827716412
-0.0021812644177777
0.13245410695113
-0.0024396667407327
0.13253369000525
-0.0027368051491607
0.13262233299873
-0.0030511563170878
0.13272070688126
-0.0033538612237376
0.132829168944
-0.0036302814379091
0.13294792783573
-0.0038606187944645
0.13307750151728
-0.004056090287324
0.13321793159213
-0.0042002502027331
0.13337038096636
-0.0043326302576002
0.13353486355301
-0.0044122332493328
0.133713303622
-0.0045225846108492
0.13390488901895
-0.0045498662158814
-0.0046914561927302
0.13411420676034
0.1244569024614
-8.8506300362136e-05
0.12446332477698
-0.00025597204998329
0.12447342896225
-0.00041154884842619
0.12448657748004
-0.00055385017399613
0.12450217851544
-0.00068480874243516
0.12451992179608
-0.00080845858746724
0.12453972715435
-0.00092788951217116
0.12456161008321
-0.0010450918583739
0.12458565277666
-0.0011626989188215
0.12461214323078
-0.0012830402992054
0.1246416271279
-0.0014047837197336
0.12467475711511
-0.0015230477399769
0.12471195681611
-0.0016343952544381
0.1247531443019
-0.0017439072754325
0.12479809257793
-0.0018669261868267
0.12484685664694
-0.0020251822977812
0.12490027867645
-0.0022346864425529
0.12495967240017
-0.0024990604604223
0.12502671612101
-0.0028038488664661
0.12510273414483
-0.0031271743382364
0.12518880250217
-0.0034399295789949
0.12528538294463
-0.0037268618791959
0.12539273190147
-0.0039679677505904
0.12551121306095
-0.0041745714466906
0.12564089579461
-0.0043299329361838
0.12578284880223
-0.0044745832647061
0.12593721201133
-0.0045665964565498
0.12610630524473
-0.0046916778404198
0.12628917974821
-0.0047327407124457
-0.0048950751093314
0.12649279867571
0.11747146867508
-9.0431166055621e-05
0.11747692927355
-0.00026143261248664
0.11748551455644
-0.00042013409399359
0.11749659139794
-0.0005649269794452
0.11750955772123
-0.0006977750320659
0.11752414525097
-0.00082304608627604
0.11754037585051
-0.00094412008343604
0.11755824527044
-0.0010629612524561
0.11757769763571
-0.001182151260311
0.11759892069149
-0.0013042633329506
0.11762266960507
-0.0014285326126651
0.11764989256414
-0.0015502706795425
0.11768100957187
-0.0016655122435338
0.1177154928368
-0.0017783905225169
0.11775245098967
-0.0019038843224819
0.11779148874515
-0.002064220036731
0.11783355607062
-0.0022767537521547
0.11788059996642
-0.0025461043411822
0.11793516669853
-0.0028584155843998
0.11799929131956
-0.0031912989462059
0.1180743841327
-0.0035150223802006
0.11816070493097
-0.0038131826668154
0.11825831753713
-0.0040655803472452
0.11836702406168
-0.0042832779628551
0.11848690754025
-0.0044498164072124
0.11861885278526
-0.0046065285026711
0.11876290160802
-0.0047106452721784
0.11892210805452
-0.0048508842788419
0.11909511735447
-0.0049057500026723
-0.005093036014421
0.11929307827209
0.11087809365027
-9.2039870456491e-05
0.11088262208524
-0.00026596099266134
0.11088972567078
-0.00042723762263289
0.11089881758869
-0.00057401884178118
0.11090930160969
-0.00070825900005891
0.11092090390687
-0.00083464833352901
0.11093367519817
-0.00095689132761122
0.11094764897646
-0.0010769349862701
0.11096270345344
-0.0011972056948675
0.11097900682543
-0.0013205666643796
0.11099740554731
-0.0014469312952933
0.11101901525553
-0.0015718803498011
0.11104419222389
-0.0016906891747711
0.11107193469338
-0.0018061329558759
0.11110076189546
-0.0019327114890939
0.11112997022339
-0.0020934283301827
0.11116080240049
-0.0023075858955509
0.11119596867583
-0.0025812705841099
0.11123902231972
-0.0029014691970327
0.11129264612974
-0.0032449227268055
0.11135856770758
-0.0035809439302764
0.11143648860623
-0.0038911035399346
0.11152611647027
-0.0041552081875962
0.11162618856928
-0.0043833500405294
0.11173700593863
-0.0045606337571505
0.1118589355423
-0.0047284580894494
0.1119927190355
-0.0048444287502466
0.11214151293233
-0.0049996781623302
0.11230076174222
-0.0050649987999457
-0.0052884093265525
0.11249613506605
0.10465478651877
-9.3360353919895e-05
0.10465844316284
-0.00026961756153789
0.10466415831521
-0.00043295269845223
0.10467138291055
-0.00058124336207953
0.10467952159126
-0.00071639760846304
0.104688296048
-0.00084342272088509
0.10469780928956
-0.0009664045026003
0.10470811092404
-0.001087236556477
0.10471899403906
-0.0012080887476314
0.10473052788438
-0.0013321004489196
0.10474370704883
-0.0014601104003373
0.10475994055621
-0.001588113798762
0.10477965019717
-0.0017103987583598
0.10480146878137
-0.0018279514835094
0.10482328371573
-0.001954526367923
0.10484392523928
-0.002114069799127
0.10486473982357
-0.0023284004266034
0.10488907838001
-0.0026056090887478
0.10492119712081
-0.0029335878881508
0.10496421781678
-0.0032879433754287
0.10502019175761
-0.0036369178267722
0.10508857726255
-0.0039594890035309
0.10516912363769
-0.0042357545248247
0.10525921662193
-0.0044734429901759
0.10535987310022
-0.0046612902051684
0.10546922278112
-0.0048378077445803
0.10559186037117
-0.0049670663198878
0.10572777362841
-0.0051355914038785
0.10588009334592
-0.0052173185070329
-0.0054698799068655
0.10606156393183
0.098780727723532
-9.4369725707634e-05
0.098783613020645
-0.00027250276910143
0.098787925492236
-0.00043726507978545
0.098793395668994
-0.00058671345028569
0.098799481321604
-0.00072248317489376
0.098805728747532
-0.00084967006323132
0.098812211637087
-0.00097288731069579
0.098819135266752
-0.0010941601065596
0.098826317548419
-0.0012152709509652
0.098833593575167
-0.0013393763985001
0.098841655316865
-0.0014681720655763
0.098851975181766
-0.0015984335880761
0.098865511305994
-0.0017239348075568
0.098881521000605
-0.001843961103985
0.098898121074912
-0.0019711263687867
0.098913814247945
-0.002129762899984
0.098928956830481
-0.0023435429382562
0.098946010746994
-0.0026226629366367
0.098968994681668
-0.0029565717568081
0.099001184623454
-0.0033201332550485
0.099044932196608
-0.0036806653418086
0.099099646405101
-0.0040142031588148
0.099165879430495
-0.0043019875016612
0.099240372919164
-0.0045479364360368
0.099326474132336
-0.0047473913819475
0.099418459450395
-0.0049297930346786
0.099526950002673
-0.0050755568528598
0.099641165963245
-0.0052498073540054
0.099787206201796
-0.0053633587438459
0.099976648652347
-0.0056593223624692
0.3945937545743
0.00465020653705
0.3900953108905
0.0044984436954589
0.38575349437301
0.0043418165287834
0.3815730014282
0.004180492955861
0.37755841892892
0.0040145825101457
0.37371414520703
0.0038442737325998
0.37004441090386
0.0036697343137339
0.3665532543722
0.003491156542073
0.36324461034761
0.0033086440348247
0.36012238552846
0.0031222248292181
0.35719037215806
0.0029320133802642
0.35445203621436
0.0027383359533879
0.35191038874586
0.0025416474779727
0.3495681426097
0.0023422461454261
0.34742812755236
0.0021400150663907
0.34549366493189
0.0019344626293334
0.34376856587571
0.0017250990648179
0.34225663046891
0.0015119354152515
0.34096085901832
0.0012957714588326
0.33988272983511
0.0010781291912955
0.33902177237218
0.00086095747081796
0.33837553884317
0.00064623353676137
0.33794029111826
0.00043524773248988
0.33771192113693
0.0002283699887813
0.33768588365449
2.6037489735728e-05
0.33786539897297
-0.00017951531127877
0.33824890044765
-0.00038350146762864
0.33883606282147
-0.00058716236684424
0.33962769266914
-0.00079162984083859
0.3406250515403
-0.0009973588643975