/*--------------------------------*- C++ -*----------------------------------*\
| =========                 |                                                 |
| \\      /  F ield         | OpenFOAM: The Open Source CFD Toolbox           |
|  \\    /   O peration     | Version:  2112                                  |
|   \\  /    A nd           | Website:  www.openfoam.com                      |
|    \\/     M anipulation  |                                                 |
\*---------------------------------------------------------------------------*/
FoamFile
{
    version     2.0;
    format      ascii;
    arch        "LSB;label=32;scalar=64";
    class       volVectorField;
    location    "2";
    object      U;
}
// * * * * * * * * * * * * * * * * * * * * * * * * * * * * * * * * * * * * * //

dimensions      [0 1 -1 0 0 0 0];

internalField   nonuniform List<vector> 
22000
(
(1.0000011474125 -2.4927859051683e-05 0)
(1.0000250051395 -7.2400402030451e-05 0)
(1.0000710347736 -0.00011757142191751 0)
(1.0001372078164 -0.00016041012921013 0)
(1.0002250578565 -0.00020221527728854 0)
(1.0003354080463 -0.00024385044047739 0)
(1.0004662725321 -0.00028318754989032 0)
(1.0006171928208 -0.0003197622356981 0)
(1.0007838743969 -0.0003567826054191 0)
(1.0009614295973 -0.0003959245548119 0)
(1.0011526338011 -0.00043434802161318 0)
(1.0013683368206 -0.00046746947681565 0)
(1.0016136120832 -0.00049420017802435 0)
(1.0018727654996 -0.00052030988205098 0)
(1.0021275926297 -0.00055516434853207 0)
(1.0023910920128 -0.00060590797889459 0)
(1.0026945735717 -0.00067487587261707 0)
(1.0030492876144 -0.00076087335624882 0)
(1.0034467518307 -0.0008597787846593 0)
(1.0038866008453 -0.00096558549494875 0)
(1.0043790131315 -0.0010692103616068 0)
(1.0049271405548 -0.0011636581626183 0)
(1.0055203367169 -0.001241365835082 0)
(1.0061458896693 -0.0013013243684901 0)
(1.0067930228818 -0.0013394196659978 0)
(1.0074551601635 -0.0013638746496627 0)
(1.0081233108249 -0.0013678762219327 0)
(1.0087931160435 -0.0013696187308011 0)
(1.0094562637242 -0.0013489992234998 0)
(1.0101147868362 -0.0013449891794773 0)
(1.0000005754393 -7.3687649333557e-05 0)
(1.0000248664923 -0.00021421622686924 0)
(1.0000710879106 -0.00034761935963568 0)
(1.0001382866461 -0.0004749396547049 0)
(1.000227236523 -0.0005983747353957 0)
(1.0003389458412 -0.00071965080778528 0)
(1.00047322814 -0.00083702999607751 0)
(1.0006289013441 -0.00094887318305317 0)
(1.0008001156008 -0.0010575590724491 0)
(1.0009777323351 -0.0011669544051675 0)
(1.0011648152236 -0.0012764217998165 0)
(1.0013819846333 -0.0013779160439146 0)
(1.0016379070746 -0.0014640240596048 0)
(1.0019063079186 -0.001542247871983 0)
(1.002162424446 -0.0016363143107861 0)
(1.0024247645494 -0.0017735891363169 0)
(1.0027300356387 -0.0019708181070849 0)
(1.0030889795829 -0.002229661732591 0)
(1.0034918431702 -0.0025353193300296 0)
(1.0039400597354 -0.0028634985759721 0)
(1.0044445436908 -0.003182394201141 0)
(1.0050080361556 -0.0034685370197131 0)
(1.0056173309059 -0.0036995744233613 0)
(1.0062598939184 -0.0038745685552548 0)
(1.0069220429958 -0.0039835410028803 0)
(1.007600394052 -0.0040508936433792 0)
(1.0082806302697 -0.0040590825644116 0)
(1.0089657316692 -0.0040607943306357 0)
(1.0096376594546 -0.003998849601972 0)
(1.0103135476049 -0.0039834610446798 0)
(1.0000006394488 -0.00012124976026565 0)
(1.0000262414566 -0.0003525011435556 0)
(1.0000747102649 -0.00057235595721405 0)
(1.0001455269306 -0.00078224969786698 0)
(1.0002387531635 -0.00098443233557567 0)
(1.0003559052736 -0.0011820006563365 0)
(1.0004972873753 -0.0013749022754617 0)
(1.0006610085764 -0.0015601900559841 0)
(1.0008400997131 -0.0017387331278473 0)
(1.0010227008595 -0.0019164573846547 0)
(1.0012133695803 -0.0020943851228826 0)
(1.0014401764437 -0.0022610819844991 0)
(1.0017121409701 -0.0024040774834276 0)
(1.0019937859844 -0.0025324890383686 0)
(1.0022566886636 -0.0026825824621811 0)
(1.0025257762687 -0.0029014688806941 0)
(1.0028420854666 -0.0032217596432407 0)
(1.0032146332362 -0.0036495633713969 0)
(1.0036312053738 -0.0041595272202861 0)
(1.0040948422374 -0.0047080302086508 0)
(1.0046172210178 -0.0052396566979819 0)
(1.0052018886062 -0.0057137319088233 0)
(1.0058327965797 -0.0060927464256152 0)
(1.0064989283256 -0.0063766529551188 0)
(1.0071821627318 -0.0065502653706055 0)
(1.0078843070411 -0.0066550845247431 0)
(1.0085823049354 -0.0066630805785881 0)
(1.0092916546643 -0.0066625642308056 0)
(1.0099758006238 -0.0065579409439407 0)
(1.0106797179135 -0.006532126683336 0)
(1.0000006726301 -0.00016887268857449 0)
(1.0000280196263 -0.0004909994338042 0)
(1.0000796290978 -0.00079735571877579 0)
(1.0001550528311 -0.0010889660171293 0)
(1.0002541347735 -0.0013687963057676 0)
(1.0003783936741 -0.00164206581717 0)
(1.0005281904555 -0.001909534595781 0)
(1.0007018200048 -0.0021667203839317 0)
(1.0008915980453 -0.0024140622202254 0)
(1.0010829480988 -0.0026596165752039 0)
(1.0012814103123 -0.0029050882243171 0)
(1.001521329139 -0.0031355016881973 0)
(1.0018124121976 -0.0033343017648597 0)
(1.0021119346656 -0.0035127483076035 0)
(1.0023880941954 -0.0037189093504724 0)
(1.0026707695555 -0.0040182259114575 0)
(1.0030044685055 -0.0044587786238167 0)
(1.0033969491145 -0.0050518048963709 0)
(1.0038335892997 -0.005762219634979 0)
(1.0043189471214 -0.0065277136816012 0)
(1.0048650656919 -0.0072687029900086 0)
(1.0054768993563 -0.0079269173615851 0)
(1.0061350205387 -0.0084493198699327 0)
(1.0068311055179 -0.0088369306931813 0)
(1.0075409073327 -0.0090692159640815 0)
(1.0082739233238 -0.0092065186522732 0)
(1.0089948662041 -0.0092095529340472 0)
(1.0097371596477 -0.0092041144705812 0)
(1.0104379616112 -0.0090537582575681 0)
(1.0111825030074 -0.0090181566118954 0)
(1.0000007041442 -0.00021702734854282 0)
(1.0000301708074 -0.00063102574394264 0)
(1.000085567393 -0.0010246193815627 0)
(1.000166388762 -0.0013981326440154 0)
(1.0002727240252 -0.0017555688604681 0)
(1.0004058867836 -0.0021042329574122 0)
(1.0005659014551 -0.002445622830571 0)
(1.0007515799325 -0.0027744294879887 0)
(1.0009543912312 -0.0030910107740724 0)
(1.0011567011636 -0.0034049006151771 0)
(1.0013650350894 -0.0037178668144368 0)
(1.001619514137 -0.0040114410999752 0)
(1.0019302797382 -0.0042653534052614 0)
(1.0022484449743 -0.0044930496162379 0)
(1.0025395347911 -0.0047536790307484 0)
(1.0028375902256 -0.0051301045685967 0)
(1.0031901067108 -0.0056857800011986 0)
(1.0036050217996 -0.0064380964200272 0)
(1.0040671184539 -0.0073433871879967 0)
(1.004583304154 -0.0083212889223275 0)
(1.0051648709403 -0.0092676769835427 0)
(1.0058172164435 -0.010106514492646 0)
(1.0065154427272 -0.010768626260119 0)
(1.0072534971841 -0.011256736904343 0)
(1.0079988966741 -0.011544554271176 0)
(1.0087706298385 -0.011712827311587 0)
(1.0095185515922 -0.011709733525802 0)
(1.0102992151732 -0.011700876316147 0)
(1.0110178851044 -0.011505748006452 0)
(1.0118100870587 -0.011464885368198 0)
(1.0000007728727 -0.00026597495728474 0)
(1.0000325377616 -0.00077329464082304 0)
(1.000092327602 -0.0012551769983108 0)
(1.0001791460055 -0.0017112639858221 0)
(1.000293264998 -0.0021467453414198 0)
(1.0004359967286 -0.0025706729170217 0)
(1.0006064504653 -0.0029853856172317 0)
(1.0008044543282 -0.0033856091105155 0)
(1.0010215394075 -0.0037718029059556 0)
(1.0012368985557 -0.0041542076165176 0)
(1.0014580572922 -0.0045345270183236 0)
(1.0017309713312 -0.0048918025192968 0)
(1.0020656444588 -0.0052024275952894 0)
(1.0024071087371 -0.0054807942878869 0)
(1.0027191622735 -0.0057959549569481 0)
(1.0030402368445 -0.0062493823733515 0)
(1.0034195641468 -0.0069229692127061 0)
(1.003863578987 -0.0078426618921915 0)
(1.0043548429859 -0.0089552882725147 0)
(1.0049016504633 -0.0101583885966 0)
(1.0055140541542 -0.011317638589175 0)
(1.006199272922 -0.012335585149155 0)
(1.0069287204428 -0.013125752255178 0)
(1.0077018154868 -0.013695825851179 0)
(1.0084787580047 -0.0140170264938 0)
(1.0092900308658 -0.014196668710714 0)
(1.01006866576 -0.014170937941564 0)
(1.0108957477257 -0.014150988572238 0)
(1.011640913103 -0.013905694549933 0)
(1.0124920889552 -0.013865740725411 0)
(1.0000008475069 -0.00031576988614824 0)
(1.0000350330946 -0.00091783361765836 0)
(1.0000995025307 -0.001489174437197 0)
(1.0001927343556 -0.0020286160349737 0)
(1.0003152402186 -0.002542355645026 0)
(1.0004683678747 -0.0030414806539836 0)
(1.0006502996762 -0.0035292988734762 0)
(1.0008616049855 -0.0040005626834489 0)
(1.0010935400278 -0.0044564537206756 0)
(1.0013225356907 -0.004908409480072 0)
(1.0015569399565 -0.0053573112505081 0)
(1.0018468191375 -0.0057785732008237 0)
(1.0022016640678 -0.0061456051811743 0)
(1.002562791236 -0.0064757050963899 0)
(1.0028941221241 -0.0068487969403438 0)
(1.0032378801372 -0.007382434879079 0)
(1.0036432732964 -0.0081713483054091 0)
(1.0041135561895 -0.0092453895579237 0)
(1.0046273147276 -0.010541856647215 0)
(1.0051935438976 -0.011942119472736 0)
(1.0058218421557 -0.013290116517137 0)
(1.0065241547868 -0.014474730668782 0)
(1.0072708103568 -0.01539464032019 0)
(1.0080700261979 -0.016061631014803 0)
(1.0088749699771 -0.016438199821947 0)
(1.0097296499457 -0.016654700082045 0)
(1.0105465997929 -0.016627413872214 0)
(1.0114347191221 -0.016615830303293 0)
(1.0122191786055 -0.016329176881932 0)
(1.0131514117064 -0.016302229630691 0)
(1.0000009275664 -0.00036623990680832 0)
(1.0000375717248 -0.0010643730240256 0)
(1.0001068488819 -0.0017261066339544 0)
(1.0002065279239 -0.002349249826237 0)
(1.0003372419236 -0.0029414705633778 0)
(1.0005003497652 -0.0035158016968143 0)
(1.0006929004325 -0.0040761468326764 0)
(1.0009163953001 -0.0046179502615177 0)
(1.0011625828267 -0.0051440434837285 0)
(1.0014057414492 -0.0056665572113707 0)
(1.0016549990668 -0.0061842164991222 0)
(1.0019641257477 -0.0066687908791423 0)
(1.0023418766208 -0.0070925159303643 0)
(1.0027260175612 -0.0074770549208534 0)
(1.003080397504 -0.0079117131046745 0)
(1.0034502282525 -0.0085258965707208 0)
(1.0038845374579 -0.0094230829050854 0)
(1.0043852374607 -0.010636517061597 0)
(1.004929643215 -0.012097458912931 0)
(1.0055291722676 -0.013677119114686 0)
(1.0061920861011 -0.015202520349971 0)
(1.0069326038295 -0.016551549761483 0)
(1.0077159257601 -0.017606807774264 0)
(1.0085563719868 -0.018382451579811 0)
(1.0093972145332 -0.018828152869484 0)
(1.0102972012737 -0.019096538465591 0)
(1.011147395938 -0.019080198215695 0)
(1.0120899561258 -0.019089300462159 0)
(1.0129023057609 -0.01876953556181 0)
(1.0139100109337 -0.018764712226591 0)
(1.0000009975105 -0.00041716251593504 0)
(1.0000400265472 -0.0012121039687403 0)
(1.0001139198886 -0.0019645972384106 0)
(1.0002197189387 -0.0026715173861749 0)
(1.0003583163889 -0.0033418067234653 0)
(1.0005310217597 -0.0039904467017632 0)
(1.0007338577714 -0.004622405307333 0)
(1.0009694867205 -0.0052340431600586 0)
(1.0012299516402 -0.005829698667952 0)
(1.0014869614531 -0.0064222096148254 0)
(1.0017500304959 -0.0070086581757401 0)
(1.0020763643673 -0.0075578273496014 0)
(1.0024743663917 -0.0080405970077169 0)
(1.002878859793 -0.0084818069757352 0)
(1.0032534231034 -0.0089794259972425 0)
(1.0036462483205 -0.0096760000784123 0)
(1.0041078350149 -0.010686008707547 0)
(1.0046407866721 -0.012047219388933 0)
(1.0052208007665 -0.013682985180805 0)
(1.0058590147695 -0.015450584535975 0)
(1.0065592313135 -0.017155677585937 0)
(1.0073364497285 -0.018663400730023 0)
(1.0081506696357 -0.019840457530281 0)
(1.0090240948192 -0.02070763987014 0)
(1.0098920855842 -0.021204662362462 0)
(1.0108307106987 -0.021512409193274 0)
(1.0117106366096 -0.021498596023449 0)
(1.0127078224122 -0.021529699560163 0)
(1.0135522709178 -0.021179110204944 0)
(1.0146408790656 -0.02121010538109 0)
(1.000001051906 -0.00046816962781105 0)
(1.0000423270214 -0.0013598843830264 0)
(1.000120482833 -0.0022028099658649 0)
(1.0002319545995 -0.0029929189882159 0)
(1.0003778565132 -0.0037401812389604 0)
(1.0005591008371 -0.0044618623618161 0)
(1.0007708727575 -0.0051643916795486 0)
(1.0010169058182 -0.0058448295754181 0)
(1.0012893629059 -0.0065091768237877 0)
(1.0015584067698 -0.0071718439883366 0)
(1.0018344392878 -0.0078284076009878 0)
(1.0021767606885 -0.0084431612125512 0)
(1.002592729049 -0.0089840681012065 0)
(1.0030154804049 -0.0094801003970882 0)
(1.0034093202969 -0.010041017629108 0)
(1.0038248432427 -0.01082416738162 0)
(1.0043128764295 -0.011951962978848 0)
(1.0048755948196 -0.013460231791136 0)
(1.0054857911462 -0.015258605353627 0)
(1.0061534786187 -0.017190214233083 0)
(1.0068784982754 -0.019044952339737 0)
(1.0076787886299 -0.020685021043375 0)
(1.0085115515055 -0.021968881671923 0)
(1.0094094493408 -0.022928845258236 0)
(1.0103005050835 -0.023491934566073 0)
(1.0112794174228 -0.023864821013753 0)
(1.0121935878318 -0.023880962180387 0)
(1.0132554369428 -0.023963898241062 0)
(1.0141393496023 -0.023602698233571 0)
(1.0153253888912 -0.023693415676675 0)
(1.0000010936069 -0.00051880211409692 0)
(1.000044344898 -0.001506444207619 0)
(1.0001262004671 -0.0024387548540725 0)
(1.000242539528 -0.0033107670318904 0)
(1.0003946221674 -0.0041334170218086 0)
(1.0005829173413 -0.0049262898515909 0)
(1.0008018896074 -0.0056975193210879 0)
(1.001056201373 -0.0064451406140894 0)
(1.0013385712353 -0.0071768166277386 0)
(1.0016183251796 -0.0079084232349228 0)
(1.0019059043842 -0.0086341431752092 0)
(1.0022613883509 -0.0093140207091103 0)
(1.0026918463053 -0.0099133897119208 0)
(1.0031307078906 -0.01046566197585 0)
(1.0035434007227 -0.011092007539515 0)
(1.0039809741384 -0.011963090956531 0)
(1.0044923763049 -0.01320721301288 0)
(1.0050791258865 -0.014857343331289 0)
(1.005713457529 -0.016809983585743 0)
(1.0064076011047 -0.018896528335712 0)
(1.0071600147382 -0.020893608550765 0)
(1.0079921638932 -0.022663034606167 0)
(1.0088568987585 -0.024055284885497 0)
(1.0097942722819 -0.025114318978541 0)
(1.0107214198724 -0.025752043777545 0)
(1.0117494883476 -0.02620066126783 0)
(1.0127010096661 -0.026256629354396 0)
(1.0138268918342 -0.026401782545234 0)
(1.0147442064946 -0.026038853470766 0)
(1.016024627137 -0.0261986116626 0)
(1.0000011252394 -0.00056857083580277 0)
(1.0000459848037 -0.0016504016476549 0)
(1.0001308037246 -0.0026701480630142 0)
(1.0002509580274 -0.0036219250990989 0)
(1.0004078442774 -0.0045176887339122 0)
(1.0006014984492 -0.0053791323135857 0)
(1.0008256910596 -0.0062162669506103 0)
(1.0010859552462 -0.0070287590218012 0)
(1.001375787502 -0.0078261311284062 0)
(1.0016639591616 -0.0086252449317753 0)
(1.0019605646357 -0.0094186822566349 0)
(1.0023257885739 -0.010163050155491 0)
(1.0027665625505 -0.010822123820673 0)
(1.0032175473315 -0.011433388150915 0)
(1.0036458679645 -0.012127098359929 0)
(1.0041024074483 -0.013084886323927 0)
(1.0046334799846 -0.014440626621593 0)
(1.0052401102365 -0.016226710738659 0)
(1.0058951189064 -0.01832935472489 0)
(1.0066136025947 -0.020569982645368 0)
(1.0073927375552 -0.022711105718599 0)
(1.0082569017053 -0.024612335416592 0)
(1.009154263076 -0.026113622876748 0)
(1.0101312262453 -0.027270550871446 0)
(1.0110939723993 -0.027979795074485 0)
(1.0121690920855 -0.028502282969513 0)
(1.0131558320849 -0.028597385311854 0)
(1.0143419711263 -0.028809128813564 0)
(1.0152917652318 -0.028450591778461 0)
(1.0166628605909 -0.028691676218472 0)
(1.000001147206 -0.00061699296236989 0)
(1.0000471763159 -0.0017902939062583 0)
(1.0001340982674 -0.0028946521419845 0)
(1.0002569024397 -0.0039233240450476 0)
(1.0004170494177 -0.0048891739498496 0)
(1.0006140256332 -0.0058158997802939 0)
(1.0008409636485 -0.006715710904334 0)
(1.0011041871563 -0.0075903780773731 0)
(1.0013980155843 -0.0084513110139173 0)
(1.0016911428749 -0.0093159586368824 0)
(1.0019934450085 -0.010175182962059 0)
(1.0023646038603 -0.010982798161912 0)
(1.0028112303257 -0.011701772846734 0)
(1.0032698817392 -0.01237342364461 0)
(1.0037099825751 -0.013135621508418 0)
(1.0041820231239 -0.014179385125181 0)
(1.004729586681 -0.015643476863596 0)
(1.0053531723686 -0.017560348245026 0)
(1.0060260872518 -0.019807340981785 0)
(1.0067651478952 -0.022197351996346 0)
(1.0075656475446 -0.024479400158709 0)
(1.0084543739316 -0.026511063441947 0)
(1.009376040741 -0.02812121771755 0)
(1.0103838199605 -0.029377307488686 0)
(1.0113747682392 -0.03016032119113 0)
(1.012490653122 -0.030761335348949 0)
(1.0135091627154 -0.030901026149355 0)
(1.014753209456 -0.031189130916415 0)
(1.0157365901403 -0.030843542800458 0)
(1.0171997127723 -0.031181267499621 0)
(1.0000011589419 -0.00066359408306578 0)
(1.0000478525458 -0.0019247568832775 0)
(1.0001359330397 -0.0031101112788854 0)
(1.0002600340782 -0.0042120724927569 0)
(1.0004215747343 -0.005244306121648 0)
(1.0006194937196 -0.0062324849318389 0)
(1.0008464056394 -0.0071912628341359 0)
(1.0011093423022 -0.008124767375854 0)
(1.0014035716719 -0.0090462080686209 0)
(1.0016982175219 -0.0099733573159275 0)
(1.0020029157545 -0.010895491177032 0)
(1.0023760680939 -0.011764366273006 0)
(1.0028237711757 -0.012542853313485 0)
(1.0032850782837 -0.013275956487387 0)
(1.0037321760144 -0.014107940533211 0)
(1.0042147067185 -0.01523762646033 0)
(1.0047734319714 -0.016807719487089 0)
(1.0054082362108 -0.018850765640717 0)
(1.0060934761919 -0.02123630336264 0)
(1.0068468053736 -0.023769700584111 0)
(1.0076621415945 -0.026187718140919 0)
(1.008567406167 -0.028346148254605 0)
(1.0095058855705 -0.030063734257709 0)
(1.0105358288373 -0.031419293324336 0)
(1.0115485157974 -0.032279140134529 0)
(1.0126980499086 -0.032964027575804 0)
(1.0137444070214 -0.033155698027322 0)
(1.015042506828 -0.03353100811105 0)
(1.0160586872444 -0.033209360439204 0)
(1.0176136539376 -0.03365902272949 0)
(1.0000011577614 -0.00070793633589973 0)
(1.0000479663283 -0.0020525665464519 0)
(1.000136191631 -0.0033145697431443 0)
(1.0002601061777 -0.004485477254905 0)
(1.0004210309451 -0.0055797226899699 0)
(1.0006174455112 -0.0066249499105379 0)
(1.0008415656969 -0.0076383565369442 0)
(1.0011009839554 -0.0086266111804814 0)
(1.0013919261845 -0.0096048206082055 0)
(1.0016842745536 -0.01059102638019 0)
(1.0019873421046 -0.011573010316199 0)
(1.002357593039 -0.012500947712037 0)
(1.0028006179222 -0.013338107922863 0)
(1.0032587016301 -0.014133033356052 0)
(1.0037074034038 -0.015035341435721 0)
(1.00419493886 -0.016250246461269 0)
(1.0047590086734 -0.017923454632773 0)
(1.0053983882339 -0.020087385220199 0)
(1.0060893669581 -0.022604696248463 0)
(1.0068491510148 -0.025273978204079 0)
(1.007671967752 -0.027821681636679 0)
(1.0085840093058 -0.030101707138129 0)
(1.0095320398323 -0.031925346537743 0)
(1.0105730366959 -0.03338022453303 0)
(1.0116028622316 -0.034322685708344 0)
(1.0127746832886 -0.035096303295904 0)
(1.0138480528559 -0.035352065214173 0)
(1.0151916139934 -0.035825165587833 0)
(1.0162395780557 -0.035539584510654 0)
(1.0178877488086 -0.036119804791495 0)
(1.000001142889 -0.00074963506518657 0)
(1.0000474998435 -0.0021726269266797 0)
(1.0001348182909 -0.0035062740732663 0)
(1.0002570534333 -0.0047411638778953 0)
(1.0004153709339 -0.0058925382596847 0)
(1.0006078126968 -0.0069900224569771 0)
(1.0008262678155 -0.008053314802764 0)
(1.0010787058082 -0.0090917410782897 0)
(1.00136232161 -0.010122505636804 0)
(1.0016481723828 -0.011163915327331 0)
(1.0019453344717 -0.012202223187324 0)
(1.002307807842 -0.013186359490425 0)
(1.0027406267663 -0.014080402751991 0)
(1.0031896877852 -0.014936285938232 0)
(1.0036341671364 -0.015908099121585 0)
(1.0041203223839 -0.01720636893471 0)
(1.0046826900093 -0.01897904879163 0)
(1.0053188658528 -0.021258185101326 0)
(1.0060074338539 -0.023900181168953 0)
(1.0067647397577 -0.026697696846869 0)
(1.0075858825021 -0.02936850418367 0)
(1.008494817342 -0.031765286337136 0)
(1.0094436726638 -0.03369373878792 0)
(1.0104859351992 -0.035248896141249 0)
(1.0115271107052 -0.036280413044326 0)
(1.0127100581211 -0.037148132499814 0)
(1.0138124752958 -0.03748326612846 0)
(1.0151820932973 -0.038058398167549 0)
(1.0162805671372 -0.037833939770476 0)
(1.0180030753629 -0.038556163565307 0)
(1.0000011150637 -0.00078837293664884 0)
(1.0000464549018 -0.0022840335779098 0)
(1.0001317924608 -0.0036837723162109 0)
(1.0002508145415 -0.0049771837428957 0)
(1.0004044813343 -0.0061804100234657 0)
(1.0005904780166 -0.007325076530535 0)
(1.0008005079831 -0.0084332707102513 0)
(1.0010426799761 -0.0095169869579937 0)
(1.0013150621395 -0.010595659149423 0)
(1.0015902571108 -0.011687903548194 0)
(1.0018771855417 -0.012778483986238 0)
(1.0022268967058 -0.013815459205836 0)
(1.002643955688 -0.014764040939386 0)
(1.0030782011995 -0.015679263628056 0)
(1.0035123927235 -0.016718700058251 0)
(1.0039900909054 -0.018097075092448 0)
(1.0045425713629 -0.019964043834827 0)
(1.0051665651046 -0.022351211977341 0)
(1.0058432974698 -0.025109713012752 0)
(1.0065884539425 -0.028027287707989 0)
(1.0073980076038 -0.030814745129727 0)
(1.0082942320642 -0.033324183613675 0)
(1.0092343837159 -0.03535713585689 0)
(1.0102693492641 -0.037014846991866 0)
(1.0113132614991 -0.03814205089479 0)
(1.0124997391743 -0.039111257137497 0)
(1.0136244025722 -0.039538654441839 0)
(1.015011169177 -0.040224014715751 0)
(1.0161607568208 -0.040084404254706 0)
(1.0179454382983 -0.040955133689776 0)
(1.0000010753411 -0.00082390934624543 0)
(1.0000448512137 -0.0023861154014111 0)
(1.0001271803368 -0.0038460079001715 0)
(1.0002415209955 -0.0051921159576489 0)
(1.0003885188405 -0.0064415865067383 0)
(1.0005655206156 -0.007628046589764 0)
(1.0007642721229 -0.0087757963841969 0)
(1.0009929612339 -0.009899473482818 0)
(1.0012504623257 -0.01102094080282 0)
(1.0015111881851 -0.012159371512649 0)
(1.0017838529095 -0.013298192234432 0)
(1.0021159925276 -0.014384836880734 0)
(1.0025118435242 -0.015385622717973 0)
(1.0029256297432 -0.016358167998993 0)
(1.0033436451979 -0.017462547005575 0)
(1.0038057935396 -0.018916622729208 0)
(1.0043396810881 -0.020871475198489 0)
(1.0049413558814 -0.023358274394057 0)
(1.005595083332 -0.026224161983159 0)
(1.0063165360575 -0.029252925419315 0)
(1.0071027341281 -0.032150077593751 0)
(1.0079752404612 -0.034767465341621 0)
(1.0088957158544 -0.036903727764009 0)
(1.0099139242734 -0.038665305568145 0)
(1.0109505656017 -0.03989334604238 0)
(1.012132824149 -0.040970567922443 0)
(1.0132701102971 -0.041501544688016 0)
(1.0146689336283 -0.042306387352735 0)
(1.0158602263056 -0.042269848607891 0)
(1.0177038473801 -0.043299422353189 0)
(1.0000010255023 -0.0008560812133232 0)
(1.0000427131569 -0.0024784047972449 0)
(1.0001210401214 -0.003992284746652 0)
(1.000229351033 -0.0053850939897465 0)
(1.0003679092843 -0.0066750275673945 0)
(1.0005336291849 -0.0078977603494927 0)
(1.0007184244657 -0.009079652548896 0)
(1.0009305068586 -0.010237759546287 0)
(1.0011694113832 -0.0113963335015 0)
(1.0014115368074 -0.012575445864529 0)
(1.0016655134223 -0.013757690093424 0)
(1.0019752469594 -0.014890325121252 0)
(1.0023448340006 -0.015940511694608 0)
(1.0027330001787 -0.016967645787974 0)
(1.0031289941045 -0.018133318558866 0)
(1.0035681506315 -0.019657750947248 0)
(1.0040741329465 -0.021693625469448 0)
(1.0046426619423 -0.024271843251225 0)
(1.0052614727718 -0.027236992373001 0)
(1.0059468668557 -0.030369689380187 0)
(1.0066973300542 -0.033371605639215 0)
(1.0075345373989 -0.036094325631973 0)
(1.0084243555137 -0.038333963051829 0)
(1.0094156722888 -0.040202043013547 0)
(1.0104355401553 -0.041535118983236 0)
(1.0116047940569 -0.042727098555174 0)
(1.0127456824706 -0.043370185655908 0)
(1.0141503455891 -0.044303935786386 0)
(1.0153738156355 -0.044384510886133 0)
(1.0172741532167 -0.045584941640014 0)
(1.0000009692065 -0.00088479945885801 0)
(1.0000400780975 -0.0025606321849119 0)
(1.0001134449498 -0.0041222254867398 0)
(1.0002144529928 -0.0055556903502747 0)
(1.0003429082108 -0.0068802041843377 0)
(1.0004952293873 -0.0081336519288932 0)
(1.0006637980653 -0.0093445232198813 0)
(1.0008568551567 -0.010531875125152 0)
(1.0010741928498 -0.011721869207113 0)
(1.001294018104 -0.012935777678809 0)
(1.0015248477623 -0.014156278107107 0)
(1.0018072238929 -0.015330911734511 0)
(1.0021455043082 -0.016426867670084 0)
(1.0025031690061 -0.01750374369555 0)
(1.0028708586124 -0.018723671059812 0)
(1.0032783310763 -0.020309048622335 0)
(1.0037444427943 -0.022415512907389 0)
(1.0042662191256 -0.025074529640844 0)
(1.0048354197351 -0.02813032221599 0)
(1.0054712790742 -0.031360492918593 0)
(1.0061736689853 -0.034464765006722 0)
(1.0069661308622 -0.037293067705647 0)
(1.0078172421576 -0.039639608832746 0)
(1.0087751421683 -0.041620164756737 0)
(1.0097720388112 -0.043065362156891 0)
(1.0109223150364 -0.044381698805913 0)
(1.0120596333648 -0.045147075516847 0)
(1.0134657970719 -0.046222667199624 0)
(1.0147119922171 -0.046435409914559 0)
(1.016665392394 -0.047820047908336 0)
(1.000000909923 -0.00091003762482385 0)
(1.0000369699958 -0.0026326961826187 0)
(1.0001045075476 -0.0042357735837923 0)
(1.0001970939746 -0.0057039129606318 0)
(1.000313917723 -0.0070570458024669 0)
(1.0004508260371 -0.0083356043145407 0)
(1.0006010293899 -0.0095704656411355 0)
(1.0007728763976 -0.010782063068176 0)
(1.0009660163655 -0.011997713982024 0)
(1.0011603007831 -0.013240326247165 0)
(1.001364293529 -0.014494272457399 0)
(1.0016157879378 -0.015707993028528 0)
(1.0019196190572 -0.016847424404626 0)
(1.0022437201609 -0.017969297684784 0)
(1.0025773977503 -0.019234711682663 0)
(1.0029436641663 -0.020868086134327 0)
(1.0033555032141 -0.0230308477868 0)
(1.0038143858601 -0.025757092357125 0)
(1.0043171960182 -0.028893760324148 0)
(1.0048900037092 -0.032214798992745 0)
(1.0055337905481 -0.035419224318436 0)
(1.0062759640522 -0.038352140464332 0)
(1.0070844756128 -0.040806963712586 0)
(1.0080082845261 -0.04290136761979 0)
(1.0089786637668 -0.044462166055872 0)
(1.0101092531895 -0.045905882957239 0)
(1.0112361623733 -0.046800339320809 0)
(1.0126404152471 -0.048025674845739 0)
(1.0139031165872 -0.04838014360505 0)
(1.0158955988145 -0.049965647353765 0)
(1.0000008500311 -0.00093182831194682 0)
(1.000033424633 -0.0026946769085499 0)
(1.0000943254377 -0.0043331333749064 0)
(1.0001775223717 -0.0058300486808635 0)
(1.0002814077137 -0.0072058126482853 0)
(1.0004012329237 -0.0085039334858155 0)
(1.0005313513045 -0.0097580046791778 0)
(1.0006801282994 -0.010988938443382 0)
(1.0008466958274 -0.01222425530609 0)
(1.0010123788685 -0.013489155992296 0)
(1.0011858171824 -0.01477173592101 0)
(1.0014025579861 -0.016021746693729 0)
(1.0016687919188 -0.01720168483818 0)
(1.0019565748418 -0.018361534314595 0)
(1.0022516534117 -0.019660205832032 0)
(1.002567894734 -0.021325811574422 0)
(1.0029127884531 -0.023530092990718 0)
(1.0032944802375 -0.026314062892335 0)
(1.0037194006967 -0.029529280077193 0)
(1.0042220919242 -0.032945606824382 0)
(1.0048075755974 -0.036257611691342 0)
(1.0055032904837 -0.039302378438797 0)
(1.0062766552757 -0.041870275554999 0)
(1.0071715407695 -0.044079434307826 0)
(1.0081193367249 -0.045755391457584 0)
(1.009228614429 -0.047324595676397 0)
(1.0103422484674 -0.048346528513876 0)
(1.0117350354341 -0.049722532586867 0)
(1.0130041780997 -0.05022004354975 0)
(1.0150324289423 -0.052015302433969 0)
(1.0000007836543 -0.00095033780689527 0)
(1.0000295622854 -0.0027470130443307 0)
(1.0000831433749 -0.0044149810724991 0)
(1.0001561384169 -0.0059349885873188 0)
(1.0002460813412 -0.007327534231858 0)
(1.0003475776344 -0.0086397037740645 0)
(1.0004561424887 -0.009908215561613 0)
(1.0005799643095 -0.011153528201504 0)
(1.0007177286739 -0.01240220062631 0)
(1.0008526829516 -0.013682736574774 0)
(1.0009937225649 -0.014989983251319 0)
(1.0011737491214 -0.016275757245169 0)
(1.0013998575211 -0.017494969248119 0)
(1.0016468180035 -0.018684176011339 0)
(1.001896513162 -0.019997313949308 0)
(1.0021531669861 -0.021670046470223 0)
(1.0024215759143 -0.023892572476059 0)
(1.0027175581442 -0.026720496233988 0)
(1.0030604076478 -0.03001324879047 0)
(1.0034926304855 -0.033533993432945 0)
(1.0040258994746 -0.036968215337463 0)
(1.0046832220918 -0.040136840244324 0)
(1.0054329514464 -0.042828757528961 0)
(1.0063033794117 -0.045155020928432 0)
(1.0072352469951 -0.046948805708353 0)
(1.0083137326164 -0.048641405046998 0)
(1.0094164774485 -0.049790617727966 0)
(1.0107747874835 -0.051323564973082 0)
(1.0120514994262 -0.051954514083271 0)
(1.014078728125 -0.053987058699729 0)
(1.000000690798 -0.00096609076421905 0)
(1.0000255808768 -0.0027912035982491 0)
(1.0000713447387 -0.0044835100247111 0)
(1.0001334204643 -0.0060218944057747 0)
(1.0002087712148 -0.0074265808694997 0)
(1.0002912925629 -0.0087480796424481 0)
(1.000377082792 -0.010026918334079 0)
(1.0004741423544 -0.01128286723035 0)
(1.0005812784502 -0.012540044907723 0)
(1.0006833389508 -0.013830002696436 0)
(1.000788445537 -0.015156747001023 0)
(1.0009275452414 -0.016476554806752 0)
(1.0011111219091 -0.017735865257855 0)
(1.0013177475542 -0.018955002343085 0)
(1.0015250966582 -0.020279622494555 0)
(1.001725167575 -0.021951575858868 0)
(1.0019189466744 -0.024184014760553 0)
(1.002129517316 -0.027050426623165 0)
(1.0023883107129 -0.030422646632957 0)
(1.0027413996249 -0.034055850021986 0)
(1.0032107995179 -0.037626071887545 0)
(1.0038098214459 -0.040928181157084 0)
(1.0045241196065 -0.043749482201749 0)
(1.0053447785169 -0.046188178272033 0)
(1.0062568764033 -0.048097999570506 0)
(1.0072602766582 -0.049911480289405 0)
(1.0083668590181 -0.051191271677683 0)
(1.0096050154993 -0.052911435407523 0)
(1.0109773154065 -0.053666318359563 0)
(1.0128868509785 -0.056186691487468 0)
(1.000000466325 -0.00098081096481809 0)
(1.0000209838569 -0.0028326404178385 0)
(1.0000584673051 -0.004548399894192 0)
(1.0001086628687 -0.0061051742355667 0)
(1.0001691066455 -0.0075223272952059 0)
(1.0002330716814 -0.0088535740862654 0)
(1.0002958097216 -0.010143680922635 0)
(1.0003648258304 -0.011413030811421 0)
(1.0004412402817 -0.012683122916173 0)
(1.0005120188337 -0.013987581124739 0)
(1.0005802521726 -0.015338650067355 0)
(1.0006704414039 -0.01669630732383 0)
(1.0007982967508 -0.017997594474203 0)
(1.0009542835585 -0.019248452902412 0)
(1.0011193475388 -0.020596035779629 0)
(1.0012814682297 -0.022299431927511 0)
(1.0014362842068 -0.024594831021511 0)
(1.0015932261508 -0.027569051471059 0)
(1.0017861204003 -0.031089237382765 0)