/*--------------------------------*- C++ -*----------------------------------*\
| =========                 |                                                 |
| \\      /  F ield         | OpenFOAM: The Open Source CFD Toolbox           |
|  \\    /   O peration     | Version:  2112                                  |
|   \\  /    A nd           | Website:  www.openfoam.com                      |
|    \\/     M anipulation  |                                                 |
\*---------------------------------------------------------------------------*/
FoamFile
{
    version     2.0;
    format      ascii;
    arch        "LSB;label=32;scalar=64";
    class       surfaceScalarField;
    location    "12.1";
    object      phi;
}
// * * * * * * * * * * * * * * * * * * * * * * * * * * * * * * * * * * * * * //

dimensions      [0 3 -1 0 0 0 0];

oriented        oriented;

internalField   nonuniform List<scalar> 
43645
(
0.39512365232409
-4.7792361405684e-06
0.39513798968587
-1.4337333060155e-05
0.39516184265544
-2.3852938499126e-05
0.39519514925674
-3.3306569205471e-05
0.39523785872209
-4.2709433142502e-05
0.39528992651251
-5.2067758548631e-05
0.39535129517523
-6.1368631489383e-05
0.39542188529652
-7.0590090784129e-05
0.39550159882059
-7.9713494383507e-05
0.39559033419502
-8.8735345542884e-05
0.39568799102749
-9.7656804450922e-05
0.39579447618267
-0.00010648512795688
0.39590968743684
-0.00011521122780515
0.39603351932908
-0.00012383186662914
0.3961658355787
-0.00013231622483438
0.39630650023687
-0.00014066463407277
0.3964553288047
-0.00014882854446045
0.39661216679054
-0.00015683796307297
0.39677677678842
-0.00016460997573295
0.39694901461564
-0.00017223780555647
0.39712856433372
-0.00017954969690797
0.39731533901379
-0.00018677465924338
0.39750887101352
-0.0001935319792851
0.39770923190612
-0.00020036087235793
0.39791563771054
-0.00020640578445183
0.3981285573955
-0.00021291966506888
0.3983465219747
-0.00021796455948209
0.39857095255881
-0.00022443056463763
0.39879885183191
-0.0002278992540904
-0.00023497779387745
0.39903382964509
0.37294702769669
-9.252149204531e-06
0.37296053870723
-2.7848297396875e-05
0.37298317666837
-4.6490852615927e-05
0.3730148885641
-6.5018417981168e-05
0.37305562712583
-8.3447948563692e-05
0.37310535623197
-0.0001017968192274
0.37316403329696
-0.0001200456520633
0.37323159719373
-0.00013815394416143
0.37330796747535
-0.00015608373374616
0.37339305671704
-0.00017382454603134
0.37348677456744
-0.00019137461481312
0.37358903516373
-0.00020874568525546
0.37369974321134
-0.00022591923756785
0.37381880215537
-0.00024289077381457
0.37394608796267
-0.00025960199635961
0.3740814800603
-0.0002760566968269
0.37422481129651
-0.00029215974674033
0.37437594453238
-0.00030797116577169
0.37453465875365
-0.00032332416462694
0.37470082395921
-0.00033840297931821
0.37487413751207
-0.00035286321861747
0.37505452375767
-0.00036716087408398
0.37524152815992
-0.0003805363512694
0.37543523260004
-0.00039406528244469
0.3756348701795
-0.00040604333421935
0.37584091893413
-0.00041896839009685
0.37605193866751
-0.00042898426348892
0.37626935622997
-0.00044184809811006
0.37649023508246
-0.0004487780786813
-0.00046295070504955
0.37671820802229
0.35201531584195
-1.3670420615686e-05
0.35202858768751
-4.1120094612943e-05
0.35205072444274
-6.8627559412855e-05
0.35208168520369
-9.5979131076019e-05
0.35212143327401
-0.00012319597205243
0.35216994508039
-0.00015030857988251
0.35222719715717
-0.00017729768439617
0.35229315246789
-0.00020410921162644
0.35236775395527
-0.00023068517919965
0.35245093234645
-0.00025700289650312
0.35254260821884
-0.00028305044784336
0.35264270202964
-0.00030883945788019
0.35275112342984
-0.00033434060089671
0.3528677851303
-0.00035955243849881
0.35299257683322
-0.00038439366471334
0.35312539920612
-0.00040887903611479
0.3532661062479
-0.00043286675593936
0.35341458632787
-0.00045645121391741
0.35357063395564
-0.00047937176142361
0.35373414129475
-0.00050191028798343
0.35390480793676
-0.00052352983082402
0.35408258240386
-0.00054493531168239
0.3542669957565
-0.00056494967485849
0.35445817070299
-0.00058524019998391
0.35465529513843
-0.0006031677409667
0.35485892790744
-0.00062260113034039
0.35506751221626
-0.00063756854365547
0.35528264353346
-0.00065697938684142
0.35550110412357
-0.00066723864135381
-0.00068871239996361
0.35572686584699
0.33225840172388
-1.80281445435e-05
0.33227147417195
-5.4192500128162e-05
0.33229326281172
-9.0416156451205e-05
0.33232372722483
-0.00012644350190277
0.33236283472432
-0.00016230343011275
0.33241057514156
-0.00019804895662675
0.33246694940196
-0.0002336719054111
0.33253195124868
-0.00026911102000158
0.33260555291495
-0.00030428680829425
0.33268770745416
-0.00033915739959637
0.33277834847545
-0.00037369143423641
0.33287740377365
-0.00040789472222477
0.3329847885386
-0.00044172533316775
0.33310042681823
-0.0004751906864106
0.33322422512424
-0.00050819194009351
0.33335611104458
-0.00054076492665051
0.3334959646783
-0.00057272036080554
0.33364370701788
-0.00060419352527828
0.3337991506306
-0.00063481534668902
0.3339622163016
-0.00066497593198714
0.33413260284265
-0.00069391634544501
0.33431029103052
-0.00072262347339014
0.33449478658388
-0.0007494452024631
0.33468626925087
-0.00077672284128398
0.33488385669591
-0.00080075516058498
0.33508822651379
-0.00082697092271763
0.33529765316143
-0.00084699516592196
0.33551399452051
-0.00087332072074663
0.3357336489172
-0.00088689301382599
-0.00091624562685846
0.33596118216934
0.31361037001866
-2.2340747574221e-05
0.31362328948438
-6.7111928005514e-05
0.31364481506686
-0.00011194170109331
0.31367491229499
-0.00015654069270302
0.31371355406483
-0.00020094516351763
0.31376074563321
-0.00024524048950098
0.31381651671108
-0.00028944294888654
0.3138808978393
-0.00033349211483563
0.31395389647326
-0.00037728541006425
0.31403549284557
-0.00042075374074219
0.314125637014
-0.00046383557270033
0.31422426686788
-0.00050652454713984
0.31433130572011
-0.0005487641575798
0.31444669275377
-0.00059057769314395
0.31457035583081
-0.00063185499124513
0.31470225598764
-0.00067266505833663
0.31484230536252
-0.00071276971140031
0.31499046536632
-0.00075235350534317
0.31514657099253
-0.00079092094984244
0.31531057951547
-0.00082898443219433
0.3154821895066
-0.00086552631432666
0.3156614238748
-0.00090185781946156
0.31584775768788
-0.00093577899370153
0.31604144473449
-0.00097040986599195
0.31624151561749
-0.0010008260218023
0.31644880025416
-0.001034255537373
0.31666136102286
-0.0010595559126013
0.31688138603183
-0.0010933457076947
0.31710478238058
-0.0011102893412708
-0.0011483084277015
0.31733684520392
0.29600897159422
-2.6610449072218e-05
0.29602174360497
-7.9883904072335e-05
0.29604301501821
-0.00013321307970068
0.29607276005257
-0.00018628569289289
0.29611095982674
-0.00023914490432515
0.29615763830585
-0.00029191893606296
0.29621285850952
-0.00034466312099027
0.29627669327431
-0.00039732684893657
0.29634919084089
-0.00044978294701305
0.2964303636026
-0.00050192647373812
0.29652018211738
-0.00055365405983829
0.29661859802091
-0.00060494042390845
0.29672554634317
-0.00065571245411983
0.2968409860521
-0.00070601737715968
0.29696487169974
-0.00075574061492687
0.29709720484447
-0.00080499817978018
0.29723793642129
-0.00085350126574285
0.29738707671726
-0.00090149377933905
0.29754448903352
-0.00094833324477858
0.29771017602793
-0.00099467140559707
0.29788383912465
-0.001039189390527
0.29806555400628
-0.0010835726806966
0.29825476336763
-0.0011249883349889
0.29845181104217
-0.0011674575204356
0.2986556289429
-0.0012046439026277
0.29886722736945
-0.0012458539438471
0.29908442283563
-0.0012767513587872
0.29930978903867
-0.0013187118908044
0.29953866164576
-0.0013391619291582
-0.0013868251889397
0.29977717842737
0.2793954494463
-3.0825346542473e-05
0.27940803837859
-9.2472805862822e-05
0.27942899768626
-0.00015417235700103
0.27945831225051
-0.00021560022722992
0.27949597350338
-0.00027680612804591
0.2795420269616
-0.00033797236586808
0.27959657282395
-0.00039920895585312
0.27965973087478
-0.0004604848730717
0.27973159497907
-0.0005216470255846
0.27981221434342
-0.00058254581319598
0.2799015842694
-0.0006430239619121
0.279999674346
-0.00070303047739824
0.28010643566331
-0.00076247374927632
0.28022185224243
-0.00082143393483022
0.28034591118823
-0.00087979954015076
0.28047866189373
-0.00093774886527942
0.28062010129122
-0.00099494064396567
0.28077029733418
-0.0010516898034504
0.2809291486366
-0.0011071845289261
0.28109671294797
-0.0011622356989341
0.28127269984327
-0.001215176268201
0.28145724931428
-0.0012681221341512
0.28164977355359
-0.0013175125569972
0.28185072239413
-0.0013684063435706
0.28205892344235
-0.0014128449335756
0.28227559333989
-0.0014625238238732
0.28249828103744
-0.0014994390388587
0.2827299937184
-0.0015504245542614
0.28296543993268
-0.0015746081265273
-0.0016330818998195
0.28321169666169
0.26371434708909
-3.4962959663258e-05
0.2637266862285
-0.00010481191782201
0.26374722444689
-0.000174710548057
0.2637759590089
-0.00024433476228826
0.2638128933609
-0.00031374045373568
0.26385809674203
-0.00038317572127947
0.26391170942998
-0.00045282161884928
0.26397390171783
-0.00052267713661374
0.26404481702248
-0.00059256230676469
0.26412454546478
-0.00066227423268807
0.26421311123424
-0.00073158970941606
0.26431050627288
-0.00080042549474576
0.26441670244595
-0.00086866990190188
0.26453171432436
-0.00093644579338975
0.26465556759954
-0.001003652796263
0.26478836668329
-0.0010705479304691
0.26493016183354
-0.0011367357763303
0.26508108744093
-0.001202615393331
0.26524108528572
-0.001267182356772
0.26541027843943
-0.0013314288359396
0.26558839200803
-0.0013932898205229
0.26577564247936
-0.0014553725893049
0.26597141697399
-0.0015132870357725
0.26617628711673
-0.0015732764704235
0.26638897688146
-0.0016255346826395
0.26661093232179
-0.001684479248407
0.26683942446674
-0.0017279311681699
0.26707793212216
-0.001788932194119
0.26732050308621
-0.0018171790756408
-0.0018877999508664
0.26757522115328
0.24891332328441
-3.8993531461025e-05
0.24892532407579
-0.00011681268529753
0.24894529618599
-0.00019468263447568
0.24897325073803
-0.0002722892908707
0.24900920453658
-0.00034969422936771
0.24905325198878
-0.00042722315105733
0.24910557523243
-0.00050514484071978
0.24916639731408
-0.00058349919701845
0.24923591395889
-0.00066207893103787
0.2493142594342
-0.00074061968799665
0.24940149052815
-0.00081882078410416
0.24949762572443
-0.00089656067230498
0.24960266236815
-0.00097370652761854
0.24971665083831
-0.0010504342460387
0.24983966124209
-0.0011266631832135
0.24997185953795
-0.0012027462099065
0.25011335641214
-0.0012782326346941
0.25026436083008
-0.0013536197957442
0.25042486610584
-0.0014276876175121
0.25059507073689
-0.0015016334521444
0.25077472457132
-0.0015729436405028
0.25096413286663
-0.0016447808702181
0.25116266699129
-0.0017118211463349
0.25137103483057
-0.0017816442955709
0.25158786422945
-0.0018423640675921
0.25181484854768
-0.0019114635525829
0.25204898275725
-0.0019620653638597
0.25229424285851
-0.0020341922815756
0.25254400778712
-0.002066943991015
-0.0021511994576577
0.25280740730818
0.23494297698109
-4.2882932454354e-05
0.23495453771864
-0.00012837340158795
0.23497377711316
-0.00021392200781872
0.23500072118357
-0.00029923334033455
0.23503540097797
-0.0003843740032703
0.23507793669322
-0.00046975884614846
0.23512855287426
-0.00055576100212473
0.23518752606222
-0.00064247236573052
0.23525510566166
-0.00072965851178943
0.2353314721336
-0.00081698614165573
0.23541671784184
-0.00090406647467132
0.23551089135052
-0.00099073416371715
0.2356140198537
-0.0010768350141383
0.23572619400048
-0.0011626083765398
0.2358475336836
-0.0012480028506535
0.23597827154166
-0.0013334840525991
0.23611858546013
-0.0014185465383526
0.23626876544932
-0.001503799770365
0.23642886524581
-0.0015877873999149
0.23659916738885
-0.0016719355812661
0.23677945761011
-0.0017532338482432
0.23697014041124
-0.0018354636579239
0.23717058555433
-0.0019122662763262
0.23738164750787
-0.0019927062360295
0.23760187725762
-0.0020625938045417
0.23783322368771
-0.0021428099698505
0.23807242512428
-0.0022012667878553
0.23832396279149
-0.0022857299363838
0.23858055730556
-0.0023235384932947
-0.0024230393535578
0.23885239721416
0.22175668209833
-4.6595223194007e-05
0.22176769571004
-0.00013938699467174
0.22178602757652
-0.00023225385571371
0.22181171899779
-0.00032492474318632
0.22184481544533
-0.00041747043273908
0.22188546252451
-0.00051040590750411
0.22193392639656
-0.00060422485675395
0.22199053621589
-0.00069908216791475
0.22205559492716
-0.00079471720635114
0.22212932980234
-0.00089072100042669
0.22221187080864
-0.00098660746504066
0.22230329905959
-0.0010821623990296
0.22240367539619
-0.0011772113355975
0.22251313379152
-0.0012720667570144
0.22263184875782
-0.0013667178025892
0.22276012237669
-0.0014617576573541
0.2228982066117
-0.0015566307597111
0.22304647544779
-0.0016520685929951
0.22320505403896
-0.0017463659780505
0.22337431255061
-0.0018411940800078
0.22355408885271
-0.0019330101378231
0.22374488932844
-0.0020262641211916
0.22394610643456
-0.0021134833703113
0.22415873590371
-0.002205335693068
0.22438129436676
-0.0022851522557779
0.22461596526639
-0.0023774808576612
0.22485930107254
-0.00244460258247
0.22511625651917
-0.0025426853716822
0.2253789708439
-0.0025862528072875
-0.0027026678187661
0.2256585993207
0.2093104320991
-5.0095356630629e-05
0.2093207926044
-0.00014974748332777
0.20933804569431
-0.0002495069290005
0.20936224719772
-0.00034912623005171
0.20939345636475
-0.00044867958347978
0.20943184278479
-0.00054879231141779
0.20947771201628
-0.00065009407241407
0.20953144326557
-0.00075281340153167
0.20959339122155
-0.00085666514700608
0.20966382904747
-0.00096115881119951
0.2097429251422
-0.0010657035450045
0.20983079438088
-0.0011700316231313
0.20992753410331
-0.0012739510438605
0.21003332298869
-0.0013778556284075
0.21014839410273
-0.0014817889030612
0.21027311878008
-0.0015864823213203
0.21040783034121
-0.0016913423078618
0.21055298404225
-0.0017972222812001
0.21070879236191
-0.0019021742852833
0.21087570595043
-0.0020081076562069
0.21105364381769
-0.0021109479931438
0.21124319854653
-0.0022158188381675
0.21144383470692
-0.0023141195191944
0.21165664137041
-0.002418142345093
0.2118802189005
-0.0025087297747421
0.21211680601628
-0.002614067962372
0.21236309514465
-0.0026908917001021
0.21262404405981
-0.0028036342763582
0.21289196354768
-0.0028541722852794
-0.0029891434973145
0.21317843923687
0.1975626930412
-5.3351853842978e-05
0.19757230313235
-0.00015935755954325
0.19758832048672
-0.00026552426841936
0.19761081357329
-0.00037161930169024
0.19763985430215
-0.00047772029760337
0.19767563425632
-0.00058457225093175
0.19771849505012
-0.00069295485177409
0.19776886190323
-0.00080318024029551
0.19782713763111
-0.00091494086079468
0.19789363889201
-0.0010276600580991
0.19796857164368
-0.0011406362829665
0.19805208469666
-0.0012535446625079
0.19814431286951
-0.0013661792034307
0.1982454801019
-0.0014790228476403
0.19835587894264
-0.0015921877309694
0.1984759496762
-0.0017065530421723
0.19860610916459
-0.0018215017838959
0.19874689301559
-0.0019380061199585
0.19889861065686
-0.002053891914661
0.19906178691623
-0.0021712839037925
0.19923645181757
-0.0022856128830458
0.19942325703362
-0.0024026240428818
0.19962180817896
-0.0025126706535274
0.19983322088653
-0.0026295550417397
0.20005630584845
-0.0027318147260807
0.20029321860093
-0.0028509807043513
0.20054104896293
-0.0029387220519536
0.20080434959625
-0.0030669348997965
0.20107633131058
-0.0031261539903316
-0.0032809875018707
0.20136817532515
0.1864742627335
-5.6337204574873e-05
0.18648304132184
-0.00016813613417595
0.18649768926611
-0.00028017219893195
0.18651828635947
-0.0003922163812628
0.18654491559572
-0.00050434952020414
0.18657778770332
-0.00061744434491907
0.18661727586432
-0.0007324429993354
0.18666384617053
-0.000849750533085
0.1867179446596
-0.00096903933665037
0.18677992784608
-0.001089643231398
0.18685003670753
-0.0012107451314611
0.18692845298617
-0.0013319609282459
0.18701534789308
-0.0014530740976821
0.18711099022805
-0.0015746651700056
0.18721572965059
-0.0016969271411843
0.18733007520692
-0.0018208985862511
0.18745452290876
-0.0019459494737752
0.1875896928864
-0.0020731760857434
0.18773598560053
-0.0022001846172565
0.18789401320864
-0.0023293115004714
0.18806391025033
-0.0024555099136539
0.18824640944321
-0.0025851232248039
0.18844125039548
-0.0027075115951777
0.1886496149331
-0.0028379195688673
0.18887048780056
-0.0029526875833953
0.18910606712336
-0.0030865600171358
0.18935367947305
-0.0031863343920023
0.18961781209959
-0.0033310675169812
0.18989211179463
-0.0034004536765943
-0.0035764534320087
0.19018757773426
0.17600814116448
-5.9029597180446e-05
0.17601602566494
-0.00017602062181818
0.17602919908416
-0.0002933456052445
0.17604775131359
-0.00041076859773595
0.17607177468362
-0.00052837287739412
0.17610149565089
-0.00064716529936165
0.1761373135691
-0.00076826090487123
0.17617972887072
-0.0008921658220485
0.1762292244776
-0.0010185349310432
0.17628619179869
-0.0011466105400164
0.17635090335538
-0.0012754566758672
0.1764235714164
-0.0014046289769963
0.17650440116352
-0.0015339038327186
0.17659370379574
-0.0016639677901665
0.17669188222421
-0.0017951055578121
0.1767995107567
-0.0019285271069265
0.17691715948141
-0.002063598186932
0.17704553185301
-0.0022015484458753
0.17718511418161
-0.0023397669346796
0.17733661373791
-0.0024808110457093
0.17750025958777
-0.0026191557528007
0.17767689271867
-0.0027617563451458
0.17786635894753
-0.0028969778138344
0.17806996841009
-0.0030415290213948
0.17828681544253
-0.0031695346061667
0.178519264669
-0.003319009234117
0.17876471895706
-0.0034317886709345
0.17902789639328
-0.0035942449443752
0.1793024355975
-0.0036749928725084
-0.0038737257508959
0.1795997079254
0.16612940602279
-6.141362865354e-05
0.16613635332746
-0.00018296791422402
0.16614797884508
-0.00030497111049079
0.16616438087924
-0.00042717061950275
0.16618565905789
-0.00054965104376682
0.16621205172781
-0.00067355795705567
0.16624397837448
-0.00080018753948571
0.16628196642095
-0.00093015385653071
0.16632652848438
-0.0010630969826702
0.16637808470626
-0.0011981667501459
0.16643693443473
-0.0013343063927655
0.16650331677682
-0.0014710113075191
0.16657746749665
-0.0016080545411478
0.16665973577001
-0.0017462360521167
0.16675057247229
-0.00188594224886
0.16685061065603
-0.0020285652794447
0.16696048832727
-0.0021734758471677
0.16708098591116
-0.0023220460188329
0.16721267220552
-0.0024714532183818
0.16735634628608
-0.0026244851157658
0.16751233310221
-0.002775142558778
0.16768158323624
-0.0029310064692182
0.16786405267301
-0.0030794472410447
0.16806118656602
-0.0032386629050697
0.16827219489397
-0.003380542925198
0.16849961890573
-0.0035464332371587
0.1687409600116
-0.0036731297684785
0.16900117796007
-0.0038544628847949
0.16927394013429
-0.0039477550391368
-0.0041706768378696
0.16957089122959
0.15680509564155
-6.3480569202482e-05
0.1568110825188
-0.00018895477951026
0.15682111945509
-0.00031500803475816
0.15683531120404
-0.00044136235647027
0.15685376245337
-0.00056810228131815
0.1568767193282
-0.00069651482027334
0.15690461508782
-0.00082808328776502
0.15693799631055
-0.00096353506809653
0.15697739753542
-0.0011024981966533
0.15702326074063
-0.0012440299446106
0.15707590664979
-0.0013869522914146
0.15713559631879
-0.0015307009660519
0.15720259144731
-0.0016750496593617
0.15727727341962
-0.0018209180141062
0.15736013430282
-0.0019688031218871
0.1574518572672
-0.0021202882336526
0.15755313991938
-0.0022747584893479
0.15766483084334
-0.0024337369328627
0.15778757500542
-0.0025941973708159
0.15792225711708
-0.0027591672179372
0.15806929648397
-0.0029221819165613
0.158229750315
-0.0030914602914066
0.15840369001595
-0.0032533869335914
0.15859269374425
-0.0034276666252894
0.15879609932375
-0.0035839484970583
0.15901661813218
-0.0037669520382346
0.15925187640149
-0.0039083880308177
0.15950706690389
-0.0041096533804896
0.15977595431569
-0.0042166424445636
-0.0044650516094934
0.16007032909445
0.14800409858136
-6.5228209608744e-05
0.14800912114433
-0.00019397733049537
0.14801756082547
-0.00032344770396054
0.14802952681874
-0.00045332833803064
0.14804512652488
-0.00058370197614996
0.14806460952002
-0.00071599780447862
0.14808841632192
-0.00085189007922511
0.14811710461868
-0.00099222335481644
0.14815122302011
-0.0011366165885132
0.14819122808122
-0.0012840349964374
0.14823745616573
-0.0014331803669903
0.14829018458565
-0.0015834293771669
0.14834969569979
-0.0017345607648967
0.14841639560822
-0.0018876179139461
0.14849080978597
-0.0020432172911598
0.14857366095277
-0.0022031393919759
0.14866569656852
-0.0023667940967671
0.1487678220328
-0.0025358623888865
0.1488807501535
-0.0027071254835178
0.14900544185766
-0.0028838589143186
0.14914240604493
-0.0030591460964555
0.14929279924329
-0.003241853482736
0.14945681009808
-0.0034173977818679
0.14963614789221
-0.0036070044133153
0.14983028828614
-0.0037780888854155
0.15004211568742
-0.003978779434312
0.15026937686162
-0.0041356492002132
0.1505174944506
-0.0043577709648985
0.15078035327122
-0.0044795012607573
-0.0047545039539019
0.15106980562086
0.1396970493671
-6.6660305247966e-05
0.13970112170108
-0.00019804965172407
0.13970798523001
-0.00033031122027947
0.13971775167546
-0.00046309477140477
0.1397305289109
-0.00059647920028546
0.13974656567622
-0.00073203455925284
0.13976630338166
-0.00087162777496092
0.13979030267047
-0.0010162226346566
0.13981911846505
-0.0011654323748764
0.13985321439498
-0.0013181309186894
0.13989293705951
-0.0014729030243502
0.13993857379865
-0.0016290661094048
0.1399904226191
-0.0017864095786967
0.14004890529486
-0.0019461005831124
0.14011457281554
-0.0021088848053691
0.14018817387745
-0.0022767404474015
0.14027049656778
-0.0024491167807543
0.14036248767223
-0.0026278534870668
0.14046492082509
-0.0028095586303847
0.14057881805392
-0.0029977561374034
0.14070477443551
-0.0031851024727666
0.14084403024813
-0.0033811092905169
0.14099688812291
-0.0035702556524148
0.1411651806722
-0.0037752969589362
0.14134851944636
-0.0039614276565359
0.14154999932563
-0.0041802593110479
0.14176747818812
-0.004353128060605
0.14200662449843
-0.0045969172733063
0.14226136406424
-0.0047342408245898
-0.0050366080576727
0.14254346817083
0.13185622960901
-6.7785170954338e-05
0.13185938080108
-0.00020120082838074
0.13186471582738
-0.00033564623122656
0.13187234664218
-0.0004707255717498
0.13188237877762
-0.00060651132253436
0.13189505590611
-0.00074471167584337
0.13191081458901
-0.00088738644729948
0.13193021081551
-0.0010356188517839
0.13195379873211
-0.0011890202831965
0.1319820415534
-0.0013463737325406
0.13201529130536
-0.0015061527695615
0.132053838445
-0.0016676132427261
0.13209799242652
-0.0018305635542353
0.13214817959033
-0.001996287741065
0.13220497027556
-0.0021656754848671
0.13226912114167
-0.0023408913078059
0.13234145565296
-0.0025214512864716
0.13242293806472
-0.0027093358933818
0.13251440457558
-0.0029010251360902
0.13261690894275
-0.0031002604997651
0.13273114261478
-0.0032993361405314
0.13285839835002
-0.0035083650220931
0.13299909723908
-0.00371095453855
0.13315517068883
-0.0039313704065195
0.13332633402806
-0.0041325909944173
0.13351591692636
-0.0043698422086922
0.13372190485323
-0.0045591159873758
0.1339503832703
-0.0048253956904795
0.13419522765578
-0.0049790852098889
-0.005308839501753
0.13446745910097
0.12445547598364
-6.8614796694037e-05
0.12445774570238
-0.00020347052536138
0.12446162080309
-0.00033952130967087
0.12446721137559
-0.00047631612304434
0.12447461808996
-0.00061391801744574
0.12448407493545
-0.0007541685037678
0.12449600681965
-0.00089931831579619
0.12451095724441
-0.0010505692624941
0.12452947336364
-0.0012075363898388
0.12455201214255
-0.0013689124999732
0.12457892831795
-0.0015330689343891
0.12461050929722
-0.0016991942119959
0.12464707269468
-0.0018671269421339
0.12468903558714
-0.0020382506241816
0.12473698296046
-0.0022136228490305
0.12479165499056
-0.0023955633288514
0.12485391291776
-0.0025837092048183
0.12492470151251
-0.0027801244794945
0.1250049397554
-0.0029812633707582
0.12509565621274
-0.0031909769493923
0.12519768192876
-0.0034013618495695
0.12531228565081
-0.0036229687379876
0.1254400688718
-0.0038387377543986
0.12558298953329
-0.0040742910639149
0.12574087914799
-0.0042904806061245
0.12591722930621
-0.0045461923649122
0.12610996206756
-0.0047518487475431
0.12632592261724
-0.0050413562393172
0.1265589561584
-0.0052121187499027
-0.0055705242631237
0.12682064092212
0.11747009618704
-6.9167176850692e-05
0.11747153552116
-0.00020490982603787
0.11747403704424
-0.00034202279802054
0.11747770504385
-0.00047998408893186
0.1174826369596
-0.00061884990153387
0.1174890557208
-0.00076058723562759
0.11749736703596
-0.00090762960390084
0.11750809286546
-0.0010612950669517
0.11752176523408
-0.0012212087351284
0.1175388293409
-0.0013859765848068
0.11755964101282
-0.0015538805853509
0.11758448179227
-0.0017240349712184
0.11761367614671
-0.0018963212768783
0.11764761977516
-0.0020721942332988
0.11768690754376
-0.0022529105985921
0.1177322353489
-0.0024408911152123
0.11778450833352
-0.0026359821710086
0.11784460435191
-0.0028402204798986
0.11791356564519
-0.0030502246466806
0.11799230360065
-0.0032697148883227
0.11808189052621
-0.0034909487596501
0.11818338925572
-0.0037244674532945
0.11829778769719
-0.003953136183054
0.1184268003338
-0.0042033036892211
0.11857070021305
-0.004434380475563
0.11873292402121
-0.0047084161647646
0.11891108670144
-0.0049300114206947
0.11911281674461
-0.0052430862761466
0.11933030668394
-0.0054296086828299
-0.0058234360394638
0.11958321846844
0.11087678811517
-6.9470351318307e-05
0.11087746898666
-0.00020559064794537
0.11087870968739
-0.00034326344725884
0.1108805998801
-0.00048187423116335
0.11088323573003
-0.00062148570324083
0.11088682696337
-0.00076417842330006
0.11089175450498
-0.00091255710233994
0.11089851589879
-0.001068056419743
0.11090762391449
-0.0012303167116101
0.110919510823
-0.0013978634554904
0.11093453105565
-0.0015689007812727
0.11095295759902
-0.0017424614786451
0.11097511497368
-0.00191847861626
0.11100136782286
-0.002098447047667
0.1110323106091
-0.0022838533505232
0.11106857724392
-0.0024771577161705
0.11111111848074
-0.0026785233746021
0.11116070970909
-0.0028898116757257
0.11121855739946
-0.0031080723055805
0.11128535301409
-0.0033365104727389
0.11136256003713
-0.0035681557541515
0.11145073106257
-0.0038126384520315
0.11155167250013
-0.0040540775959946
0.11166609304897
-0.0043177242154812
0.11179576650844
-0.004564053914602
0.11194287026916
-0.0048555199071514
0.11210660318361
-0.0050937443187794
0.11229403318081
-0.0054305162583212
0.11249265817104
-0.0056282336585029
-0.0060669829216711
0.11273620507026
0.10465355507936
-6.9559403754166e-05
0.10465357256739
-0.00020560806920244
0.104653671067
-0.00034336187887181
0.10465395354585
-0.00048215664328661
0.10465451884887
-0.00062205094184076
0.1046555315163
-0.00076519102884586
0.10465733456076
-0.00091436008731478
0.10466039856006
-0.0010711203615784
0.10466522320744
-0.0012351413031718
0.10467224569541
-0.0014048858889179
0.10468183218647
-0.0015784872187922
0.10469425591248
-0.0017548851519431
0.10470982911332
-0.0019340517650525
0.10472886871994
-0.0021174866028957
0.10475193113228
-0.0023069157120906
0.10477957561542
-0.0025048021493163
0.10481277100198
-0.0027117187120282
0.10485219955835
-0.0029292401841601
0.10489922778022
-0.0031551004810146
0.10495430208315
-0.003391584731265
0.10501936080132
-0.0036332144302967
0.10509418360915
-0.0038874612206738
0.10518192489566
-0.0041418188461496
0.10528107196907
-0.0044168712554564
0.10539699056918
-0.0046799724841115
0.10552640087305
-0.0049849301834277
0.10567714783083
-0.005244491251696
0.10584830322084
-0.005601671625631
0.10603979507338
-0.0058197254893201
-0.0062879842358711
0.10626079641302
0.098779583258316
-6.9424321982353e-05
0.098779045776097
-0.00020507050885007
0.098778059321504
-0.0003423753456578
0.098776871504507
-0.00048096874906627
0.098775632385016
-0.00062081174722593
0.098774375247131
-0.00076393381799058
0.098773430296466
-0.00091341506561747
0.098773206688864
-0.0010708966844661
0.098774163719516
-0.0012360982655055
0.098776725597248
-0.0014074476991813
0.098781266681065
-0.0015830282358525
0.098788081369195
-0.0017616997738612
0.098797496137728
-0.0019434664679686
0.098809809558656
-0.002129799958752
0.098825532701446
-0.0023226387905417
0.098845155718592
-0.0025244251029195
0.098869605774242
-0.0027361687053176
0.098899493581187
-0.0029591279302356
0.098936262064226
-0.0031918689053911
0.098980222028811
-0.0034355446399752
0.099033678663242
-0.0036866710124411
0.099095825561909
-0.0039496080709368
0.099171105013833
-0.0042170982537901
0.099255717640952
-0.004501483842188
0.099359359421483
-0.0047836142281807
0.09947044885872
-0.0050960195881623
0.099610804161116
-0.0053848465253564
0.099752380958856
-0.005743248397161
0.099940783324141
-0.0060081278286914
0.10017048664392
-0.0065176875258732
0.39437230251083
0.0046615271535798
0.38986939149597
0.0045029110336975
0.38552959916536
0.0043397923492357
0.38135730659241
0.0041722925916841
0.37735675320461
0.0040005534066256
0.37353203366912
0.0038247195546317
0.36988708864566
0.003644945042811
0.36642569484708
0.003461393818305
0.36315145873584
0.0032742361311953
0.36006781228901
0.0030836464671938
0.35717800963812
0.0028898026714768
0.35448512372191
0.0026928859371987
0.35199204376503
0.0024930799780777
0.34970147276787
0.0022905710187466
0.34761592531253
0.0020855474771029
0.3457377249969
0.0018782003377639
0.34406900229783
0.0016687227213512
0.34261169200896
0.0014573103115006
0.34136753084565
0.0012441611860656
0.34033805440868
0.0010294764600693
0.33952459409307
0.00081346033880933
0.33892827222515
0.00059632189148826
0.33854999384068
0.00037827840813434
0.33839041460205
0.00015957926267694
0.33844998306972
-5.9568443503982e-05
0.33872921926915
-0.00027923617486982
0.33922802483079
-0.00049880553695462
0.33994621644502
-0.0007181915891418
0.34088339795076
-0.00093718148055827
0.34203894954393
-0.0011555515676122
0.34341202760884