/*--------------------------------*- C++ -*----------------------------------*\
| =========                 |                                                 |
| \\      /  F ield         | OpenFOAM: The Open Source CFD Toolbox           |
|  \\    /   O peration     | Version:  2112                                  |
|   \\  /    A nd           | Website:  www.openfoam.com                      |
|    \\/     M anipulation  |                                                 |
\*---------------------------------------------------------------------------*/
FoamFile
{
    version     2.0;
    format      ascii;
    arch        "LSB;label=32;scalar=64";
    class       volScalarField;
    location    "10.5";
    object      p;
}
// * * * * * * * * * * * * * * * * * * * * * * * * * * * * * * * * * * * * * //

dimensions      [0 2 -2 0 0 0 0];

internalField   nonuniform List<scalar> 
22000
(
0.010501851316378
0.010480326615987
0.010435808125076
0.010367177339193
0.010273958861687
0.010156202667378
0.010014192939062
0.0098482516925595
0.0096586542257998
0.0094456298352319
0.0092094007822802
0.0089502191908726
0.008668377474248
0.0083642102304007
0.0080380826897318
0.0076903962159979
0.0073215741452349
0.0069320824843756
0.0065224003147159
0.006093066298084
0.0056446102390139
0.005177656905987
0.0046927713781225
0.0041906917294881
0.003671981829389
0.0031375517161379
0.002587876522136
0.0020241644464729
0.0014465748010795
0.00085686104512241
0.010906119955995
0.010883319064186
0.010837108603876
0.010766494949745
0.010670981152733
0.010550546483468
0.010405417695287
0.010235887831646
0.010042221115453
0.0098246419831509
0.0095833667930062
0.0093186403055614
0.009030745211423
0.0087200079914111
0.0083867842483015
0.0080314702194051
0.0076544799367173
0.0072562791276456
0.0068373366282541
0.0063982000281156
0.0059393852731315
0.0054615426491135
0.0049652106890777
0.0044511803334903
0.0039199547646106
0.0033725452187039
0.0028092793570916
0.0022315660742176
0.0016391689913553
0.0010342420299216
0.011648819687179
0.011625025975292
0.011576902980543
0.011503503772783
0.011404359849945
0.011279452364843
0.011128992852791
0.010953253963022
0.010752481133457
0.010526883860159
0.010276664009437
0.010002052456453
0.0097033154770951
0.0093807656853038
0.0090347414533877
0.008665629008133
0.0082738249596427
0.0078597933768718
0.0074239835501258
0.0069669570293668
0.0064892015811113
0.0059914108896094
0.0054740714848418
0.0049380739975994
0.004383811970255
0.0038125090589968
0.0032242359834384
0.0026208589995385
0.002001429282295
0.001369024812559
0.012684683010089
0.012659763934381
0.012609368046342
0.012532512758508
0.012428715224819
0.012297957027284
0.012140446887336
0.011956444469724
0.011746173921172
0.011509820966948
0.011247561605119
0.010959602088278
0.010646181183304
0.010307587741234
0.0099441309190894
0.009556177397607
0.0091440928103106
0.0087083324898234
0.0082493107251407
0.007767602494434
0.0072636478449746
0.0067381964423055
0.00619165247042
0.0056250435239437
0.0050385954463325
0.0044338271720536
0.0038104180865588
0.0031708653860839
0.0025131420914902
0.0018416090966095
0.013974819087754
0.013948600588209
0.013895571998544
0.013814700109344
0.013705471871396
0.013567858173764
0.013402057896523
0.013208311129371
0.012986811429302
0.01273770866363
0.012461138414088
0.012157267149533
0.011826289561029
0.011468454859879
0.011084024828411
0.010673330720452
0.010236687029088
0.0097745263583977
0.0092872051778582
0.0087753034234252
0.0082391853495857
0.007679659969476
0.0070970091539402
0.006492424314934
0.0058658955626286
0.0052193123197156
0.0045518271342864
0.0038667540456796
0.003160659750387
0.0024396133367274
0.015485276247516
0.015457656718062
0.015401787332533
0.015316578692498
0.015201479690358
0.015056441144672
0.014881640741159
0.014677285760575
0.014443524096562
0.014180453356344
0.013888150307674
0.013566722145146
0.013216297767943
0.012837064994598
0.012429213640403
0.011993016798741
0.011528710391211
0.011036682649502
0.010517201340663
0.0099708345168801
0.0093978340128037
0.0087990630451078
0.0081746326132674
0.0075259174974086
0.0068525981738164
0.0061570052088353
0.0054376251687753
0.0046987723370245
0.0039352713120247
0.0031553033808363
0.017185573291633
0.017156537640121
0.017097792395876
0.01700818846618
0.016887130024653
0.016734538137118
0.016550556132553
0.016335342403498
0.01608898077948
0.015811496705427
0.015502886048611
0.015163173143133
0.014792394675896
0.014390649932993
0.013958026115005
0.013494708742041
0.013000820434579
0.01247667554113
0.011922413754864
0.011338565518828
0.010725224095294
0.010083292063276
0.0094126512319286
0.0087148688220134
0.0079892301000454
0.0072385659971435
0.0064605446303478
0.0056606487286223
0.0048316062080866
0.0039840884882239
0.019047538474452
0.019017157254475
0.018955673455254
0.01886187700203
0.018735121274929
0.018575287078268
0.018382468707017
0.018156757710377
0.01789815324116
0.017606586084848
0.017281946080121
0.016924147521289
0.016533104239031
0.016108794916206
0.015651167834115
0.015160285098887
0.014636114103069
0.014078857751311
0.013488479439066
0.01286543644348
0.012209606812967
0.011521906181885
0.010801916424408
0.010051393602395
0.0092691300102716
0.0084585020902126
0.007616192965266
0.0067490062693415
0.0058472027306005
0.0049242910474323
0.021044579621109
0.021013006318252
0.020949088747716
0.020851557053216
0.020719708419164
0.020553372150684
0.020352577666077
0.020117330501228
0.019847523219641
0.019542967841953
0.01920342101547
0.01882865720175
0.018418433520826
0.017972572021816
0.017490841107709
0.016973138040051
0.016419226711713
0.015829153488128
0.015202648975203
0.014540051950453
0.013840958130933
0.013106257327491
0.012335148423455
0.011529557121583
0.010687669907507
0.0098134374592582
0.0089023791355931
0.0079627539640548
0.0069819741864991
0.0059766886519612
0.02315128888013
0.023118754728955
0.023052865878178
0.022952295800537
0.022816280664194
0.022644586883558
0.022437162916896
0.022193908967905
0.02191458900813
0.021598871867378
0.02124635321117
0.020856636654144
0.020429287056463
0.019963931262658
0.019460113771038
0.018917521262699
0.018335661124148
0.017714371449705
0.017053087041319
0.0163519732691
0.015610268217689
0.014828784059972
0.014006242796508
0.013144703404909
0.01224161965988
0.01130152138568
0.01031856508904
0.009302569191609
0.0082377077003783
0.0071440122477122
0.025343290597341
0.025310096455203
0.025242840246273
0.025140143571796
0.025001177638193
0.024825635100049
0.02461336821975
0.024364153689908
0.024077606238781
0.023753228185924
0.023390427440215
0.022988606143381
0.022547101616842
0.022065306084647
0.021542495292738
0.020978096748991
0.020371306140956
0.019721695554641
0.019028337613593
0.018291158809505
0.017508960720968
0.016682409522497
0.015809654668455
0.014892829610751
0.013928525774481
0.012921827656639
0.011865321199799
0.010770428409302
0.0096176772803261
0.0084306199774345
0.027597257798551
0.027563763228942
0.027495863650837
0.027392134367466
0.027251678396994
0.027074105348542
0.026859158451685
0.026606475305493
0.026315503544622
0.025985558173462
0.025615835325626
0.025205507114224
0.024753650591715
0.02425938490289
0.023721674296702
0.023139637006575
0.022512103676874
0.021838316193454
0.021116921917634
0.020347526882664
0.019528426617552
0.018660039904605
0.017739870505316
0.016770013307338
0.015746110117397
0.014673714152434
0.013543682928203
0.012369008108583
0.01112625228767
0.0098419790052557
0.029891035883921
0.029857646252225
0.029789921491641
0.029686396168604
0.029546102783011
0.029368560983479
0.029153395707148
0.028900093864819
0.028607922309667
0.028275991980361
0.027903267639984
0.027488666816556
0.027030978280011
0.026529012796356
0.025981385262031
0.025386855219246
0.024743840376476
0.024051183513514
0.023307051371458
0.022510632601553
0.021659660655677
0.020754171166803
0.019790972759014
0.018771945676434
0.017691739416379
0.016556162764038
0.015354415718056
0.014100535428621
0.012768256845119
0.011385059673117
0.032203826195868
0.032170976004915
0.032104308196666
0.032002320630326
0.031863974197582
0.031688695189972
0.031475985131022
0.031225173241188
0.030935336818506
0.030605371597773
0.030233997104381
0.029819858127046
0.029361433124634
0.028857196085597
0.028305379751003
0.027704343238154
0.027052044744924
0.026346869837507
0.025586440870947
0.024769451348955
0.023892991107235
0.022956603447989
0.021956322892946
0.020893616744315
0.019762164674471
0.018567576610949
0.017297726054392
0.015966947205418
0.014546674966219
0.013065779424182
0.034516398913951
0.034484535106204
0.034419831771302
0.034320758416959
0.034186208039486
0.034015514092852
0.033808052871173
0.03356299281774
0.033279218038244
0.032955404388926
0.032590019140691
0.032181424192104
0.031727773259785
0.031227184476761
0.030677482943307
0.030076595902769
0.029421981126154
0.02871151963969
0.027942227802561
0.02711223771692
0.026217907107847
0.025258200616358
0.024228254084074
0.023129023960077
0.021953032504963
0.020705633035659
0.019373040373252
0.017970001202381
0.016464925227428
0.014888148299028
0.036811267196083
0.036780834963565
0.036718996563842
0.036624208565324
0.036495304926569
0.036331529967005
0.036132136494191
0.035896134358631
0.035622216980888
0.035308842218783
0.034954225345734
0.034556443649463
0.034113320938635
0.033622610495845
0.03308171484616
0.032488108915228
0.031838720206901
0.031130888707954
0.03036097384935
0.029526488745192
0.02862297977421
0.027648749700359
0.026597921471459
0.025470832289569
0.024258690509395
0.022966464995251
0.021578466825823
0.020109700959775
0.018525071327797
0.016855995090128
0.039072818542611
0.039044246273244
0.038986140629302
0.038896964273379
0.03877550491336
0.038620924258131
0.038432356606428
0.038208659973237
0.037948346011491
0.037649664422108
0.037310587332004
0.036928914284503
0.036502143566478
0.036027665531624
0.035502457031122
0.034923532985604
0.034287274039256
0.033590456580149
0.03282874610355
0.031998993367717
0.031095866230933
0.030116933705835
0.029055194586085
0.027910262902472
0.026671866081044
0.025344469498689
0.023910241474919
0.022384290111129
0.020727540452367
0.018971911390106
0.041287415532895
0.041261102848156
0.041207541874216
0.041125222173306
0.041012900417475
0.040869665587152
0.040694542646854
0.040486249252882
0.040243129680847
0.03996324134458
0.039644329968075
0.039283933818473
0.038879240751953
0.038427290670791
0.037924644248577
0.037367862212526
0.036752776918292
0.036075594229197
0.035331265154106
0.034515952562287
0.033623395458624
0.03265037795738
0.03158867354671
0.030437082765212
0.029183664251477
0.027832256372546
0.026362616918368
0.024789862159668
0.023070500968354
0.021236350407132
0.043443440403243
0.043419750467017
0.043371471413494
0.043297140685651
0.043195501571468
0.04306558392337
0.042906317250116
0.04271629479598
0.042493712597264
0.04223645681813
0.041942070937163
0.041607856045966
0.041230715455582
0.040807361403334
0.040333961103369
0.039806637995913
0.039220692480785
0.038571767482947
0.037854100564338
0.037063157571371
0.036191720960459
0.035235761631382
0.034185752731322
0.033039631114513
0.031783602007073
0.03042074748719
0.028928023822781
0.027320376947929
0.025549529271232
0.023646832767727
0.045531275393531
0.045510532542059
0.045468190255782
0.04540285067383
0.045313260650668
0.04519840894698
0.045057149931015
0.044887972895588
0.044688948340133
0.044457815098428
0.044191945016879
0.04388843258649
0.043543934117296
0.043154865135946
0.042717039223596
0.042226166960275
0.041677054971115
0.041064795866334
0.040382947440893
0.039626272421658
0.038786611411252
0.037859091404285
0.036832858424572
0.035704963473313
0.034459660466838
0.03309927219581
0.031597469987412
0.029968652704434
0.028158604540778
0.02619819985738
0.04754322212273
0.047525711504816
0.047489877159279
0.04743439683349
0.047358037384049
0.047259766537375
0.047138385224417
0.046992300661459
0.046819485775846
0.04661756192258
0.046383766903953
0.046115021131356
0.04580777911681
0.045458192696961
0.045061781228523
0.044613872013602
0.044108853870788
0.043541275630632
0.042904106864719
0.042191371151933
0.041394076506326
0.04050640658369
0.039516274559102
0.038419702644165
0.037199037592431
0.03585599056718
0.034360872555767
0.032727734882713
0.030893866428697
0.028886157325651
0.049473387807183
0.049459328099986
0.049430463349168
0.04938555605421
0.049323412833565
0.04924300944652
0.049143110365873
0.049022047925098
0.048877718566005
0.048707661819434
0.048509034967573
0.048278626548687
0.048012744630454
0.04770730636959
0.047357604188666
0.046958597231691
0.046504367774521
0.04598890714265
0.045404782380073
0.044745175423801
0.044000563812367
0.043163904422515
0.042222343505171
0.041170258769423
0.039988624178927
0.038677704946224
0.037205333806949
0.035586785397508
0.033750515179746
0.031718312966507
0.051317637824293
0.051307054261234
0.051285370293004
0.051251479921639
0.051204224792157
0.051142633131009
0.051065441742627
0.050970900631497
0.050856846189822
0.050720757208308
0.050559756197423
0.050370535882283
0.050149319968653
0.049891835073018
0.049593233674113
0.049248111749921
0.048850356967829
0.04839332160635
0.047869405291668
0.047270701607072
0.046587700188084
0.045811471570837
0.044929601900587
0.043933218550047
0.042804248361613
0.041537605254729
0.040101633673464
0.03850748344797
0.03668377374372
0.034656798485262
0.053073850402881
0.05306641146846
0.053051543611388
0.053028554210957
0.05299617201086
0.052953676625233
0.052899669831052
0.052832227640075
0.052749157201163
0.052647978902714
0.052525805459493
0.052379248323071
0.052204447538579
0.051996938414004
0.051751775408139
0.051463230038761
0.051125102153551
0.050730069037613
0.050270529378163
0.049737172722551
0.049120960638877
0.048410045859712
0.047594063756324
0.046657931889094
0.045589845015329
0.044370836696307
0.042982880849492
0.041404096039884
0.039584318147154
0.037525621198924
0.05474250753272
0.054738048515863
0.054729414485461
0.054717137073364
0.054698482369596
0.054674829542122
0.054644128418985
0.054604043492735
0.054552303767337
0.054486468317117
0.054403754825489
0.054300863907934
0.05417394675078
0.054018385603129
0.053829084283261
0.05360002806662
0.053324995999458
0.0529962435035
0.052606331384229
0.052144815604908
0.051603175976969
0.050966611461463
0.050227099193834
0.049362294428678
0.048369521686408
0.047211098085841
0.04589939411733
0.044357905678457
0.042596704824117
0.040382621023245
0.0002916412544302
-0.00024641090355409
-0.00079303789846412
-0.0013471806956219
-0.0019079927952093
-0.0024747571434123
-0.003046803887671
-0.0036234754701864
-0.004204099412896
-0.0047879723553697
-0.0053743681111313
-0.0059625551786955
-0.006551806242536
-0.0071413994820345
-0.0077306181301709
-0.0083187511013731
-0.0089050949383259
-0.0094889565606204
-0.010069655945211
-0.01064652769533
-0.01121892265468
-0.011786206571335
-0.012347756582449
-0.012902951451566
-0.013451166819936
-0.013991858042657
-0.01452480012026
-0.0150495639147
-0.015565625789889
-0.016072497122418
-0.016569773172251
-0.017057116285395
-0.017534232584272
-0.018000858481784
-0.018456764436686
-0.018901748203471
-0.019335646505188
-0.019758317720931
-0.020169666389088
-0.020569601975189
-0.020958096512797
-0.021335093734408
-0.021700641759578
-0.022054689591402
-0.022397388092426
-0.022728639518438
-0.023048771222424
-0.023357547954506
-0.023655673766702
-0.02394268255537
0.00045712085999067
-8.9438869467049e-05
-0.00064543581371936
-0.0012089739403821
-0.0017789899941006
-0.002354853915943
-0.0029360731463778
-0.0035221566288945
-0.0041125270688008
-0.0047065001471449
-0.0053033342855197
-0.0059022833760249
-0.00650261260897
-0.0071035919200554
-0.0077044888776385
-0.0083045675756149
-0.0089030913466817
-0.0094993268329338
-0.010092547260901
-0.010682035870694
-0.011267089856879
-0.011847028230686
-0.012421203306225
-0.012989021067271
-0.013549959980656
-0.014103484615423
-0.014648747494583
-0.015185178809473
-0.015712361703249
-0.016229908550996
-0.016737426676971
-0.017234534370519
-0.017720886882387
-0.018196177646176
-0.018660146360051
-0.0191125644715
-0.019553253963562
-0.019982056465821
-0.020398876809817
-0.02080361397219
-0.021196260822038
-0.021576749717598
-0.021945178319675
-0.022301465525588
-0.022645855583656
-0.02297815591444
-0.023298849776014
-0.023607401578048
-0.02390467317628
-0.024189097207923
0.00076743347184601
0.00019843637914265
-0.00038206252337468
-0.00097022241769845
-0.0015642728431053
-0.0021635821337103
-0.0027679049863314
-0.0033770012510298
-0.0039904117433839
-0.0046074281160976
-0.0052272296689337
-0.0058490085661208
-0.0064719971757212
-0.007095444122388
-0.0077185934806065
-0.0083406797024668
-0.008960931907114
-0.0095785806994402
-0.010192863751066
-0.010803029896825
-0.011408343772948
-0.01200808914569
-0.012601569169088
-0.013188098373987
-0.013766989008668
-0.014337564444707
-0.014899291516337
-0.015451630225894
-0.015994069781929
-0.016526138439571
-0.01704740466519
-0.017557472598614
-0.018055991738803
-0.01854265060972
-0.019017192717107
-0.019479394418604
-0.019929096716438
-0.020366154270981
-0.020790508910259
-0.021202075900336
-0.021600911112044
-0.021986954880616
-0.022360410055388
-0.022721168359481
-0.023069656950571
-0.023405552241314
-0.023729658582554
-0.024040976798621
-0.02434078098869
-0.024625631148061
0.0012035856708741
0.0005992025525121
-1.9432754724154e-05
-0.00064537605819349
-0.0012757982979347
-0.0019101385218302
-0.002548577185685
-0.0031912682141856
-0.0038379322566353
-0.0044878319630638
-0.0051400445415499
-0.0057936938497459
-0.0064479917945273
-0.0071021855488262
-0.0077555150018668
-0.0084072018154381
-0.0090564553706291
-0.0097024827368969
-0.010344495410445
-0.010981712982821
-0.011613366905748
-0.012238704880028
-0.012856994578377
-0.013467528796498
-0.014069635729549
-0.014662685346339
-0.015246051839803
-0.015819159017863
-0.01638147453173
-0.016932505782354
-0.017471806393633
-0.017998971604934
-0.018513650167696
-0.019015531063418
-0.019504366997033
-0.019979940649898
-0.020442115467439
-0.020890758639371
-0.021325854982775
-0.021747333316728
-0.02215532369246
-0.022549766276964
-0.02293099183114
-0.023298841594866
-0.023653969631612
-0.023995852266919
-0.024325687180296
-0.02464178214483
-0.02494584469708
-0.02523163285227
0.0017547185424672
0.0011035543759021
0.00043459814085685
-0.00024092234203591
-0.00091878358629209
-0.0015986051253748
-0.0022811936488249
-0.0029672387366714
-0.0036566907892888
-0.0043487668324128
-0.0050424103074516
-0.0057366630467036
-0.0064307206838394
-0.0071238386228288
-0.0078152601850385
-0.0085041983544425
-0.0091898448210518
-0.0098713846643535
-0.010548005548615
-0.011218902095735
-0.011883280846865
-0.012540366072835
-0.013189404158989
-0.013829665306724
-0.014460446210178
-0.015081073935587
-0.015690914657956
-0.016289369264899
-0.016875881834543
-0.017449939542807
-0.018011081938088
-0.01855889353337
-0.019093019868133
-0.019613147254105
-0.020119036389581
-0.020610475441243
-0.021087352453647
-0.021549547529111
-0.021997093678366
-0.022429933639082
-0.022848281142309
-0.023252074088616
-0.02364178787664
-0.024017202651587
-0.024379230056695
-0.024727109543732
-0.025062490609823
-0.025382868145883
-0.025690456567369
-0.02597569335095
0.0024140562439226
0.0017054540380891
0.00097453796767236
0.00023813451433927
-0.00049776413492724
-0.0012330846091798
-0.0019694773165601
-0.002708305887697
-0.0034497857940748
-0.0041930574199601
-0.0049368882636613
-0.0056802177377605
-0.0064222253896045
-0.0071621808515439
-0.0078993341677952
-0.0086328897692379
-0.0093620203451582
-0.010085887730539
-0.010803655239044
-0.011514492227554
-0.012217579107459
-0.012912113466324
-0.013597313948074
-0.014272420970479
-0.014936700475015
-0.015589452950324
-0.016230023684423
-0.016857791636481
-0.017472178843406
-0.018072651562599
-0.018658733708381
-0.019229996353785
-0.019786078725834
-0.020326662043878
-0.020851513925168
-0.021360426686056
-0.021853312637893
-0.022330064287771
-0.022790763119201
-0.023235365883453
-0.023664171228286
-0.024077115634776
-0.024474822049034
-0.024857009747092
-0.025224854888019
-0.025577356641049
-0.025916631588947
-0.026239326774311
-0.026548154635563
-0.026829932069562
0.0031777010235508
0.0024013803498393
0.0015970643340887
0.00078869046651583
-1.5565452381569e-05
-0.00081610574867308
-0.0016156824853348
-0.0024164818829249
-0.0032190115691656
-0.0040222937787374
-0.0048248724604728
-0.0056255632343163
-0.0064235298085188
-0.007218061904932
-0.0080084190652863
-0.0087937958969289
-0.0095733429433796
-0.01034619545654
-0.011111489263533
-0.011868365377219
-0.012615974773942
-0.013353484900715
-0.014080083846216
-0.014794980897888
-0.015497411265669
-0.016186646058156
-0.016861999304575
-0.017522820667056
-0.01816850553738
-0.018798494659665
-0.019412290049677
-0.020009442511335
-0.020589578120585
-0.021152365632114
-0.021697571254443
-0.022224984446288
-0.022734533085614
-0.02322611557579
-0.023699851380295
-0.024155707197919
-0.024594053292282
-0.025014825559544
-0.025418775192397
-0.02580557129019
-0.026176624079708
-0.026530720679755
-0.026870389752241
-0.027191480949873
-0.027497075468004
-0.027770336629444
0.0040446344991871
0.0031905143929568
0.0023013292598855
0.0014099022113127
0.0005270637862378
-0.00034828957567108
-0.0012203284137081
-0.0020922266627271
-0.0029647991755637
-0.0038368933899629
-0.0047067744433719
-0.0055731117932782
-0.0064350552752899
-0.007291920672675
-0.0081429774184195
-0.0089874061149123
-0.0098243291288956
-0.010652848860549
-0.011472067908
-0.012281093501511
-0.013079041690795
-0.013865044114062
-0.014638252254308
-0.015397837457303
-0.016142995984322
-0.01687296017684
-0.017587004770177
-0.018284441286573
-0.01896462860729
-0.019626971440311
-0.020270938925685
-0.020896050159916
-0.021501904827809
-0.022088147121769
-0.022654527497456
-0.023200819935691
-0.023726950210881
-0.024232811927712
-0.024718540675247
-0.025184107089176
-0.025629922639641
-0.026055926318553
-0.026462951167029
-0.026850640012337
-0.027220559778355
-0.02757135513442
-0.027905828892023
-0.028219208695767
-0.028514697522236
-0.028772171600012
0.0050163234664608
0.0040743828822795
0.0030886213713136
0.002102858457526
0.0011311319777306
0.00017134721943624
-0.00078247520883756
-0.0017346877839539
-0.0026864172785174
-0.0036362608711533
-0.0045821385749403
-0.005522549155328
-0.0064566313207086
-0.007383733028972
-0.0083031323452496
-0.0092139882308209
-0.010115385464346
-0.011006384823013
-0.011886047555652
-0.012753439255256
-0.013607632965629
-0.014447715781049
-0.015272793003911
-0.016081987710656
-0.016874446211018
-0.017649350987602
-0.018405925620238
-0.019143430474553
-0.019861174077201
-0.020558511166013
-0.021234862096138
-0.021889698588314
-0.022522575920726
-0.023133096409359
-0.023720972246542
-0.024285944973831
-0.024827910931818
-0.025346744201668
-0.025842560560513
-0.026315327441088
-0.026765446383933
-0.027192868522017
-0.027598429725696
-0.027981788075678
-0.028344534290318
-0.028685285376461
-0.029006876704761
-0.029304228194609
-0.029580235469542
-0.029812280479653
0.0060962345075565
0.0050564290670272
0.0039620327452321
0.0028703472229426
0.0017992444178814
0.00074527097662874
-0.00029982495241486
-0.0013417788137651
-0.0023820128167925
-0.003418780037825
-0.0044495838415043
-0.0054727290616902
-0.0064873482355461
-0.0074928278142429
-0.0084884511360975
-0.0094733449403941
-0.010446543406355
-0.011407053242781
-0.012353883543821
-0.013286048167425
-0.014202566541026
-0.015102469703375
-0.015984804320744
-0.016848632158814
-0.017693035927291
-0.018517133904803
-0.019320082721517
-0.020101075775272
-0.020859353698877
-0.021594202939039
-0.022304974566469
-0.022991072491932
-0.023651982198023
-0.024287242471018
-0.024896496977871
-0.025479432783041
-0.026035877072106
-0.026565665681105
-0.027068839998595
-0.027545355521472
-0.027995524711331
-0.028419326038138
-0.028817480920682
-0.029189724777654
-0.029537492091199
-0.029859538494889
-0.030158402984624
-0.030429157573554
-0.030673728668914
-0.030868286109925
0.0072894914891307
0.0061415791030282
0.0049259666691328
0.003716417776
0.002535303909448
0.0013772728623563
0.00023121278306144
-0.00091020056773746
-0.0020486134505838
-0.003181801963325
-0.0043067756128764
-0.0054216305215454
-0.0065255017717204
-0.0076178181795196
-0.0086978613297485
-0.0097647119411511
-0.010817338147062
-0.011854678009335
-0.012875675084732
-0.013879279043106
-0.014864442867262
-0.015830127385281
-0.016775305105949
-0.017698960339898
-0.018600095362454
-0.019477746719909
-0.020330984829965
-0.021158916067622
-0.021960691652862
-0.022735508238105
-0.023482621932074
-0.024201344779603
-0.024891061745067
-0.025551221881228
-0.026181360325112
-0.026781084401992
-0.027350099320975
-0.027888181834175
-0.028395225020409
-0.028871165770223
-0.029316114288209
-0.029730101127401
-0.030113552407683
-0.030466355952583
-0.030789524039656
-0.03108213855233
-0.031346031835219
-0.031577042212981
-0.031775322313321
-0.031917860505592
0.0086024972023007
0.0073360968391015
0.0059860662745655
0.0046462025490588
0.0033442049887819
0.0020721201848526
0.00081520555210282
-0.00043569176529749
-0.0016823105994626
-0.0029217697951218
-0.0041505013606548
-0.0053663885660582
-0.0065685856801826
-0.0077565665115645
-0.0089295965613589
-0.010086689966955
-0.011226728922418
-0.012348565150905
-0.013451060906286
-0.014533086679933
-0.015593513373231
-0.016631214776205
-0.017645070989294
-0.018633969978142
-0.019596813890116
-0.020532536978181
-0.021440100953109
-0.022318502521249
-0.023166777876436
-0.023984008308103
-0.024769324801171
-0.025521919373167
-0.026241038363534
-0.026926011463355
-0.027576216423304
-0.028191152115813
-0.028770335311627
-0.029313462347565
-0.029820186233244
-0.030290423489867
-0.030723940722043
-0.031120886739971
-0.03148114476396
-0.031804942860076
-0.032092475981228
-0.032343484312263
-0.032558293079695
-0.03273418600975
-0.032868101059595
-0.032940977006043
0.010042351359981
0.0086465954539106
0.0071485688803872
0.0056657578636117
0.0042318801524163
0.002835570855965
0.0014576410719074
8.6887100044304e-05
-0.0012783464654945
-0.0026343095806655
-0.0039767671875731
-0.0053033927768647
-0.0066133811070417
-0.0079062525151515
-0.0091812375407793
-0.010437256870295
-0.011673082385763
-0.012887459885071
-0.014079152614005
-0.015246934269901
-0.016389575031748
-0.017505841655693
-0.018594500502924
-0.019654321374867
-0.020684083564657
-0.02168259559912
-0.022648684740626
-0.023581212091871
-0.024479070059248
-0.025341196196473
-0.026166560972201
-0.026954204567291
-0.027703191552094
-0.028412697312046
-0.029081885246555
-0.02971011164148
-0.030296624589771
-0.030841010531787
-0.03134257720344
-0.031801199774012
-0.032216150946823
-0.032587767392137
-0.032915030301487
-0.03319880378416
-0.033437961839777
-0.033633720635548
-0.033783500164054
-0.033887428522437
-0.033937860720614
-0.03392341785583
0.011617027392459
0.010080558772224
0.0084201053000258
0.0067814631070401
0.0052047393152099
0.003673936713332
0.0021645654870936
0.00066325284614883
-0.0008313408023534
-0.0023143820052701
-0.0037808900459246
-0.0052283379458314
-0.0066559824630056
-0.0080633858283158
-0.0094497147319731
-0.010813761824851
-0.012154159595015
-0.013469525243574
-0.014758503280541
-0.016019750251753
-0.017251913480175
-0.018453629534198
-0.019623527047201
-0.020760233424781
-0.021862379813631
-0.022928622775303
-0.023957626577376
-0.024948088007149
-0.025898723291109
-0.026808294570126
-0.027675574552562
-0.028499415261591
-0.029278653645584
-0.030012269078672
-0.030699154411633
-0.031338477734224
-0.031929135158647
-0.032470554560537
-0.032961584558596
-0.033401946313817
-0.033790353691003
-0.03412727460921
-0.034410605011242
-0.034642261956321
-0.034819873781641
-0.034944807637195
-0.035010534040165
-0.035021061869253
-0.034966429503045
-0.034841183854362
0.013332545836825
0.011644864178828
0.0098076572753405
0.0080002368947289
0.0062696660331831
0.0045940049681341
0.0029425359673453
0.0012996420277596
-0.00033539514217931
-0.0019564185462139
-0.0035576398921495
-0.0051363605260593
-0.0066919209266613
-0.0082239088706056
-0.0097313871534869
-0.011212977991208
-0.012667141992418
-0.014092344249974
-0.01548708867266
-0.016849890888872
-0.018179249591157
-0.019473644300577
-0.020731538886199
-0.021951391421531
-0.023131657403787
-0.024270812749186
-0.025367327997055
-0.02641970375344
-0.027426446211422
-0.028386105286415
-0.029297217167485
-0.030158402644528
-0.03096822906877
-0.031725422625465
-0.032428562021247
-0.033076556080205
-0.03366788707719
-0.034201776727983
-0.034676517422529
-0.035091490904698
-0.035444998606966
-0.035736744641738
-0.035964049064484
-0.036129884892311
-0.036234934363358
-0.036272677296093
-0.036233678430723
-0.036128677378947
-0.035944076932423
-0.035680420250374
0.015194598219121
0.01334570609193
0.011317535834125
0.0093285777647986
0.0074333820265265
0.0056025645224825
0.0037981961964868
0.0020024404103935
0.00021561230364293
-0.0015545487856734
-0.0033014205302242
-0.0050221856697784
-0.0067162867459031
-0.0083833029849774
-0.010022136118254
-0.011631187418921
-0.013208709797265
-0.014752989317482
-0.01626236457917
-0.017735183167722
-0.019169765742253
-0.020564404881333
-0.021917370323625
-0.0232269214944
-0.024491308274403
-0.025708794127593
-0.026877624200222
-0.027996068289136
-0.029062389178232
-0.030074882638436
-0.031031812987426
-0.03193151722207
-0.032772257696046
-0.033552438244068
-0.034270297636124
-0.034924377641428
-0.035512697729346
-0.036034223524824
-0.036486387436418
-0.036868360314208
-0.037178161093961
-0.037412486137227
-0.037575723763479
-0.037674964926179
-0.0376815031363
-0.037611693756244
-0.037435448170121
-0.03719619460499
-0.036855640691049
-0.036434009591923
0.017207699718144
0.015187991683973
0.012954923079381
0.010772225734074
0.0087021759896164
0.0067061508721459
0.0047380282752439
0.0027779499134686
0.00082780603593175
-0.0011028124119604
-0.0030064672056468