/*--------------------------------*- C++ -*----------------------------------*\
| =========                 |                                                 |
| \\      /  F ield         | OpenFOAM: The Open Source CFD Toolbox           |
|  \\    /   O peration     | Version:  2112                                  |
|   \\  /    A nd           | Website:  www.openfoam.com                      |
|    \\/     M anipulation  |                                                 |
\*---------------------------------------------------------------------------*/
FoamFile
{
    version     2.0;
    format      ascii;
    arch        "LSB;label=32;scalar=64";
    class       surfaceScalarField;
    location    "10.5";
    object      phi;
}
// * * * * * * * * * * * * * * * * * * * * * * * * * * * * * * * * * * * * * //

dimensions      [0 3 -1 0 0 0 0];

oriented        oriented;

internalField   nonuniform List<scalar> 
43645
(
0.39512368289112
-4.8098582114795e-06
0.39513805962749
-1.4376773364817e-05
0.39516204898717
-2.398939968059e-05
0.39519564603143
-3.3597085561136e-05
0.39523882728861
-4.3181298651291e-05
0.39529156229736
-5.2735049794861e-05
0.39535381072326
-6.2248466166668e-05
0.39542551785105
-7.1707167144814e-05
0.39550660962515
-8.1091812438652e-05
0.3955969951876
-9.0385599793655e-05
0.3956965645884
-9.9569437091877e-05
0.39580519730103
-0.00010863274791108
0.39592275464145
-0.00011755737467725
0.39604909417929
-0.00012633957115973
0.39618404825514
-0.00013495410820355
0.39632745632882
-0.00014340810519392
0.39647911684787
-0.00015166054971665
0.39663886156835
-0.00015974475046577
0.39680644089856
-0.00016757935950455
0.39698169023222
-0.00017524936244394
0.39716426339506
-0.00018257319111276
0.39735402158741
-0.0001897582203115
0.39755043067169
-0.00019640911192424
0.39775347229096
-0.00020304164677746
0.39796226845065
-0.00020879618707302
0.39817718163512
-0.00021491321189437
0.39839664943208
-0.0002194678244154
0.39862199662098
-0.00022534721617904
0.39885015761548
-0.00022816102137694
-0.00023450561271587
0.39908466320074
0.37294706852658
-9.3237005367481e-06
0.37296068226003
-2.7990567897796e-05
0.37298355594922
-4.6863151052666e-05
0.37301569786058
-6.5739059014609e-05
0.37305708367994
-8.4567179302189e-05
0.37310768083809
-0.00010333226812632
0.37316745067806
-0.00012201836501797
0.37323634488601
-0.00014060143266234
0.37331429965039
-0.00015904663298952
0.37340123630566
-0.00017732230988008
0.37349705726801
-0.00019539045284227
0.3736016535263
-0.00021322905827887
0.37371489744584
-0.00023080134491716
0.37383665793805
-0.00024810011282367
0.37396677985382
-0.00026507607215998
0.37410511591837
-0.0002817442168457
0.37425147809164
-0.00029802276900361
0.37440571038232
-0.00031397708627909
0.37456757437139
-0.00032944339285666
0.37473691484305
-0.0003445898777532
0.37491339570895
-0.00035905410004736
0.37509688781027
-0.00037325036429316
0.37528687085637
-0.0003863922003196
0.37548333885269
-0.00039950968526518
0.37568543467294
-0.00041089204934378
0.37589353352148
-0.00042301210255926
0.37610610520254
-0.00043203954764111
0.37632448268602
-0.00044372474152219
0.37654566065123
-0.00044933902719852
-0.00046203470343187
0.3767731897
0.3520153752834
-1.380151890084e-05
0.35202883815833
-4.145350614852e-05
0.35205139193657
-6.9416992797805e-05
0.35208305424467
-9.740142990769e-05
0.35212380017768
-0.00012531317382065
0.35217358902266
-0.00015312117318397
0.35223237577542
-0.0001808051762734
0.35230011350719
-0.0002083392213695
0.35237674774735
-0.00023568092844246
0.35246221395236
-0.00026278856862697
0.35255642906052
-0.00028960561307757
0.35265929720816
-0.00031609725649711
0.35277070200219
-0.00034220618793618
0.35289052455039
-0.00036792270863651
0.35301862215303
-0.00039317372099243
0.35315486284225
-0.00041798495110691
0.35329907037049
-0.00044223034110996
0.35345110213544
-0.00046600889421743
0.35361072278722
-0.00048906408673575
0.35377778733439
-0.0005116544664804
0.35395195331749
-0.00053322012413343
0.35413311010597
-0.00055440719351558
0.3543207226016
-0.000574004736442
0.354514827479
-0.00059361460322264
0.35471452878006
-0.00061059339100078
0.35492028694367
-0.00062877030708699
0.35513046287853
-0.00064221552369685
0.35534655797932
-0.00065981988346717
0.35556529162187
-0.00066807270978148
-0.0006872906594831
0.35579054753614
0.33225848498986
-1.8242602534851e-05
0.33227187340295
-5.4841976124597e-05
0.33229432278207
-9.1866429055557e-05
0.33232585314203
-0.00012893184640893
0.33236643037046
-0.0001658904576811
0.33241600080839
-0.00020269166533162
0.33247451141
-0.00023931583068874
0.33254191702883
-0.00027574489167047
0.33261817444448
-0.0003119383940727
0.3327032361673
-0.00034785034005063
0.33279703661338
-0.00038340610626634
0.33289949576754
-0.00041855645641391
0.33301051053924
-0.00045322100395788
0.3331299767364
-0.00048738894889123
0.33325776636857
-0.00052096339496166
0.33339376617571
-0.00055398479901879
0.33353781327535
-0.00058627748044848
0.33368978108224
-0.00061797674003681
0.33384943508038
-0.00064871812299252
0.33401664182531
-0.00067886124904382
0.33419104519963
-0.00070762353555909
0.3343725571005
-0.00073591913127926
0.33456061448101
-0.00076206215360204
0.33475531046302
-0.00078831062193615
0.33495568515891
-0.00081096812358945
0.33516232012623
-0.00083540531138357
0.33537341627588
-0.00085331171052575
0.33559073298617
-0.00087713663084037
0.33581061304235
-0.0008879528019298
-0.00091419453852613
0.33603751688374
0.31361048397048
-2.2669241243701e-05
0.31362387265859
-6.8230715065653e-05
0.31364635285589
-0.00011434667719247
0.3136779532538
-0.0001605322944387
0.31371863100786
-0.00020656826070427
0.31376831784591
-0.000252378551103
0.31382695204015
-0.00029795007123428
0.31389449170845
-0.00034328460492122
0.31397090807322
-0.00038835480229844
0.31405617479552
-0.00043311710444258
0.31415024783451
-0.00047747918586484
0.31425306687323
-0.00052137553442458
0.31436454552287
-0.00056469969148767
0.31448459805679
-0.00060744151953543
0.31461311478253
-0.00064948015620325
0.31475000567915
-0.00069087573020012
0.31489512452123
-0.00073139635611295
0.31504836518959
-0.0007712174413241
0.3152094950281
-0.00080984799374006
0.31537839634436
-0.00084776259718624
0.31555469699198
-0.00088392421467434
0.31573833802628
-0.00091956019702419
0.31592872130598
-0.00095244546463923
0.31612601057166
-0.00098559991917761
0.31632916464239
-0.0010141222260458
0.31653891641898
-0.0010451571201609
0.31675326392573
-0.0010676592498133
0.31697428713591
-0.0010981598736983
0.31719784660763
-0.0011115123055147
-0.0011454551396814
0.31742910717505
0.29600912100369
-2.7088429293104e-05
0.29602253600784
-8.1645765864554e-05
0.29604509397052
-0.0001369046864465
0.29607683547905
-0.0001922738489088
0.29611771043763
-0.0002474432641785
0.29616763644604
-0.00030230460332485
0.29622654397925
-0.00035685764701282
0.2962943966251
-0.00041113729216724
0.29637118361326
-0.0004651418305313
0.29645690424511
-0.00051883777517102
0.29655154071847
-0.00057211569677688
0.29665505713237
-0.00062489198470884
0.2967673883073
-0.00067703090153385
0.29688847190896
-0.00072852515526704
0.29701822143119
-0.00077922971137812
0.29715657582682
-0.00082923015791589
0.29730341034341
-0.00087823090387519
0.29745864513158
-0.00092645226005147
0.29762205251825
-0.00097325541029479
0.29779353625066
-0.0010192463591205
0.29797270860908
-0.0010630966022005
0.29815954738984
-0.001106399006788
0.29835341590639
-0.0011463140100045
0.29855456160178
-0.0011867456435145
0.29876184951703
-0.0012214101702624
0.29897618853492
-0.0012594961673515
0.29919533996406
-0.0012868107084362
0.29942175479104
-0.001324574730153
0.29965073147541
-0.0013404890184915
-0.0013829703096234
0.29988824661498
0.27939563802756
-3.149197572036e-05
0.27940905924147
-9.5067020540173e-05
0.27943166451504
-0.00015951000060621
0.27946350860103
-0.00022411797485106
0.27950453575599
-0.00028847045811388
0.27955465087116
-0.00035241975646866
0.27961377849749
-0.00041598531016823
0.27968189046369
-0.00047924929411406
0.27975899772117
-0.00054224912254091
0.27984512968941
-0.00060496977685121
0.27994029963384
-0.00066728567342817
0.2800445011592
-0.00072909354124128
0.28015769543515
-0.00079022520749005
0.28027984914176
-0.00085067889096105
0.28041090466939
-0.00091028526708474
0.28055083645001
-0.00096916196585455
0.28069954716908
-0.0010269416494574
0.28085699020442
-0.0010838953213906
0.28102294794811
-0.0011392131793891
0.28119735285829
-0.0011936512944555
0.28137980491487
-0.0012455486835837
0.28157032752824
-0.0012969216449355
0.28176824556638
-0.0013442320728153
0.28197390342141
-0.0013924035234169
0.28218606554381
-0.001433572317623
0.28240583952203
-0.0014792701709047
0.28263072696004
-0.0015116981720283
0.28286359382549
-0.0015574416212637
0.28309911805998
-0.0015760132779653
-0.0016280334534834
0.28334418117707
0.26371457747216
-3.5860032713954e-05
0.26372794818743
-0.00010843777231485
0.26375050833331
-0.00018207018282429
0.26378232884244
-0.00025593851979187
0.26382335019971
-0.0003294918503867
0.26387346655329
-0.00040253614424455
0.26393259888446
-0.00047511767459063
0.26400073021494
-0.00054738065698367
0.26407789681876
-0.0006194157577356
0.26416416245225
-0.00069123544083307
0.26425957613507
-0.00076269938569036
0.26436416612125
-0.00083368355600231
0.26447792538474
-0.00090398449855282
0.26460085562496
-0.00097360915796632
0.26473293438701
-0.0010423640550177
0.26487417858594
-0.001110406190012
0.26502452522414
-0.00117728831214
0.26518396876189
-0.0012433388831446
0.2653523085196
-0.0013075529605344
0.26552951435798
-0.0013708571559758
0.26571518000626
-0.0014312143546201
0.26590938474414
-0.0014911264054718
0.26611141892814
-0.0015462662792564
0.26632173739216
-0.0016027220099438
0.26653900251145
-0.0016508374593499
0.26676454130775
-0.0017048089898496
0.26699558239281
-0.0017427392797693
0.26723544337111
-0.0017973026221431
0.26747814197183
-0.0018187119005423
-0.0018814273948104
0.26773153588974
0.24891359680067
-4.0164173398725e-05
0.24892683268126
-0.00012167368433079
0.24894920817499
-0.00020444570781581
0.248980812057
-0.0002875424326236
0.24902158311907
-0.00037026294257845
0.24907140714868
-0.00045236020333381
0.24913020418329
-0.00053391473786928
0.2491979713055
-0.00061514780716042
0.24927477333918
-0.00069621781853705
0.24936071204363
-0.00077717417168095
0.24945587643404
-0.00085786380161951
0.24956033422065
-0.00093814136742367
0.24967411557055
-0.0010177658724133
0.24979726312494
-0.0010967567356779
0.24992979599925
-0.0011748969518887
0.25007178059277
-0.0012523908055605
0.2502231956764
-0.0013287034171488
0.25038408497844
-0.0014042282061901
0.25055427317374
-0.0014777411763471
0.25073377697642
-0.0015503609789502
0.250922192792
-0.0016196301901534
0.25111966670322
-0.0016886003365775
0.25132546274306
-0.0017520623388043
0.25154015948148
-0.0018174187681392
0.25176232183138
-0.0018729998289607
0.25199351375219
-0.0019360009305451
0.2522306861417
-0.001979911689182
0.25247763523379
-0.002044251734048
0.25272769852364
-0.0020687752095471
-0.0021434886289336
0.25298975973712
0.2349432936435
-4.4370283271012e-05
0.23495629123136
-0.00013467129982233
0.23497830986922
-0.00022646437317373
0.23500945735087
-0.00031868994146225
0.23504967288753
-0.00041047850588192
0.23509883648112
-0.00050152382309601
0.23515686987718
-0.00059194815949521
0.23522378671915
-0.00068206467419372
0.23529968296241
-0.0007721140861875
0.23538470113288
-0.00086219236602368
0.23547897372556
-0.00095213641746498
0.23558261191783
-0.0010417795823331
0.23569568805525
-0.0011308420317789
0.23581829098863
-0.0012193596905036
0.23595048768954
-0.0013070936736014
0.23609240032254
-0.0013943034589333
0.23624405731902
-0.0014803604334405
0.23640555913936
-0.0015657300460111
0.23657676602378
-0.0016489480797796
0.23675774995788
-0.0017313449318566
0.23694812275412
-0.0018100030048284
0.23714810584909
-0.0018885834498803
0.23735695191477
-0.001960908422561
0.23757537237715
-0.0020358392485709
0.23780184961086
-0.0020994770805512
0.23803819829012
-0.0021723496277185
0.23828109991116
-0.0022228133280053
0.23853484589249
-0.0022979977329363
0.23879209125804
-0.0023260205919744
-0.0024141565824929
0.23906275919347
0.22175704077171
-4.8441287663068e-05
0.22176968569566
-0.00014731624756025
0.22179115647718
-0.00024793517839624
0.22182158045005
-0.00034911393781851
0.2218608991719
-0.00044979725079902
0.22190898940423
-0.00054961407818337
0.22196577705881
-0.00064873583635601
0.22203129423946
-0.00074758187679739
0.2221056697396
-0.00084648960777138
0.22218908841003
-0.00094561105752648
0.22228172868815
-0.0010447767161288
0.22238374796125
-0.0011437988756052
0.22249526508156
-0.0012423591717241
0.22261641902097
-0.0013405136491865
0.2227473306712
-0.0014380053425809
0.22288818248901
-0.0015351552951891
0.22303906121667
-0.001631239179082
0.22320012906645
-0.0017267979135198
0.22337129526757
-0.0018201142982311
0.22355269095874
-0.0019127406401881
0.22374396422032
-0.0020012762832532
0.22394540985524
-0.0020900291015417
0.22415630077458
-0.0021717993583965
0.22437746833185
-0.0022570068223159
0.22460735630499
-0.0023293650699539
0.22484801102562
-0.0024130043646154
0.22509589775248
-0.002470700070956
0.22535578919441
-0.0025578891906988
0.22561971176961
-0.0025899431823409
-0.0026930439106025
0.22589859908139
0.20931083027744
-5.2339634918535e-05
0.2093230048702
-0.00015949086114268
0.2093437309482
-0.00026866127720289
0.20937315511481
-0.00037853812510728
0.20941122281141
-0.00048786496780617
0.20945780984418
-0.00059620113116312
0.20951284831072
-0.00070377432279665
0.20957638992722
-0.0008111235130147
0.20964859693212
-0.00091869663203106
0.20972969672634
-0.0010267108708935
0.20981991480832
-0.0011349948168705
0.20991945604015
-0.0012433401259745
0.21002848901643
-0.0013513921661245
0.21014720503969
-0.0014592296903466
0.21027578432608
-0.0015665846464595
0.21041447183405
-0.0016738428204141
0.21056342175503
-0.0017801891169423
0.21072285949062
-0.0018862356657908
0.21089276061924
-0.0019900154431683
0.21107331121802
-0.0020932912551296
0.21126423091659
-0.0021921959976715
0.21146586071588
-0.0022916589165473
0.21167757226466
-0.0023835109226176
0.21190022579168
-0.0024796603646926
0.21213239548369
-0.0025615347770577
0.21237615457494
-0.0026567634708801
0.21262803458094
-0.0027225800917125
0.21289297534168
-0.0028228299658596
0.2131628614231
-0.0028598292775131
-0.0029794161519812
0.2134492336497
0.19756312639664
-5.6029518827913e-05
0.19757471631474
-0.00017108079747483
0.19759450648614
-0.00028845146685377
0.19762266155802
-0.00040669321520852
0.19765913178841
-0.00052433521622654
0.19770379393491
-0.00064086329562564
0.19775658771265
-0.0007565681182974
0.19781758479129
-0.00087212060933223
0.19788698011679
-0.00098809197499831
0.19796504262175
-0.0011047733932159
0.19805204411306
-0.001221996325301
0.19814823709957
-0.0013395331294793
0.19825384090725
-0.0014569959905258
0.19836910065239
-0.0015744894520822
0.19849425843269
-0.0016917424430556
0.19862962380902
-0.0018092082128963
0.19877542364385
-0.0019259889676113
0.19893195009809
-0.002042762135734
0.19909925528175
-0.0021573206422261
0.19927758551592
-0.002271621504556
0.19946674868739
-0.0023813591840956
0.19966713578828
-0.0024920460322717
0.19987824594363
-0.0025946210925101
0.20010095064027
-0.0027023650757622
0.20033404280808
-0.002794626959017
0.20057947203882
-0.0029021927156456
0.20083418467501
-0.0029772927416377
0.20110268018031
-0.0030913254845426
0.20137772145527
-0.0031348705651971
-0.0032722582186098
0.20167056350821
0.18647472693812
-5.947910229607e-05
0.18648562706024
-0.00018198093587607
0.18650430602047
-0.00030713044344013
0.18653094356666
-0.0004333307777859
0.18656549523518
-0.00055888690103918
0.18660784031212
-0.00068320838885708
0.186657926982
-0.00080665480436265
0.18671584631455
-0.00093003995806916
0.18678182396512
-0.0010540696416239
0.18685616798905
-0.0011791174332045
0.18693919400045
-0.0013050223526067
0.18703120092549
-0.0014315400704007
0.18713245757365
-0.0015582526543916
0.18724326332936
-0.0016852952234591
0.18736392149006
-0.0018124006192032
0.18749480830929
-0.0019400950475002
0.18763622346315
-0.0020674041366115
0.18778853207542
-0.0021950707630231
0.18795186417288
-0.002320652754431
0.18812654088655
-0.0024462982328304
0.18831245597142
-0.0025672742832724
0.1885100833558
-0.0026896734307946
0.18871902414339
-0.0028035618939349
0.18894024323833
-0.0029235841843673
0.18917266391056
-0.0030270476445907
0.1894182927129
-0.0031478215311478
0.18967432206582
-0.0032333221073954
0.18994508076987
-0.0033620842010535
0.19022386953347
-0.0034136593406295
-0.0035700478874721
0.1905216591896
0.17600863125069
-6.2661606842766e-05
0.17601875267222
-0.00019210237218359
0.17603616917339
-0.00032454695951888
0.17606107273567
-0.00045823435502868
0.17609342428108
-0.0005912384613652
0.17613310676618
-0.00072289088891648
0.17618007721088
-0.00085362526393744
0.17623444466486
-0.00098440742697886
0.1762964624438
-0.0011160874354097
0.17636647390186
-0.0012491289061495
0.17644483462212
-0.0013833830876747
0.17653188679993
-0.0015185922630479
0.1766279460428
-0.0016543119120049
0.17673336405892
-0.0017907132543422
0.17684850312088
-0.0019275396957927
0.17697380541187
-0.0020653973531061
0.17710964203182
-0.002203240770981
0.1772564539432
-0.0023418826887398
0.17741444988711
-0.0024786487124328
0.17758403514209
-0.0026158835017491
0.17776519114892
-0.0027484303037305
0.17795849242414
-0.002882974719428
0.17816363973638
-0.0030087092192542
0.17838172578356
-0.0031416702443782
0.17861177418619
-0.0032570960597111
0.17885595034831
-0.0033919977055014
0.17911152362078
-0.0034888953917657
0.17938300117425
-0.0036335617660256
0.1796637133697
-0.0036943715470156
-0.0038713592314503
0.17996502470185
0.1661299162935
-6.5555933147404e-05
0.16613918997572
-0.00020137606812295
0.16615522221583
-0.00034057921348196
0.1661782150457
-0.00048122719881357
0.1662081347889
-0.00062115821841531
0.16624486871118
-0.00075962482505499
0.16628838225844
-0.00089713882497076
0.16633880032163
-0.0010348255039464
0.16639640008206
-0.0011736872095199
0.16646155524249
-0.0013142840802925
0.16653465619361
-0.0014564840524378
0.16661608365118
-0.0016000197343177
0.16670619584187
-0.001744424116336
0.16680539266489
-0.0018899100910722
0.16691409154517
-0.0020362385897034
0.16703279677303
-0.0021841025946093
0.16716194825489
-0.0023323922663473
0.1673020612831
-0.0024819957303887
0.167453424315
-0.0026300117575201
0.16761652931273
-0.002778988512494
0.1677914511119
-0.0029233521155647
0.16797886982406
-0.0030703934439867
0.16817859695659
-0.0032084363637668
0.16839185523733
-0.0033549285367618
0.16861779009826
-0.0034830309318664
0.16885872340514
-0.0036329310232849
0.1691120423468
-0.0037422143439464
0.16938244018358
-0.0039039596129286
0.16966330732237
-0.0039752386954659
-0.0041743702804543
0.16996631836083
0.1568056204259
-6.8147681127613e-05
0.15681399720782
-0.00020975286303348
0.1568285555218
-0.00035513754051674
0.15684950493823
-0.00050217662827656
0.15687681697318
-0.00064847026623637
0.15691038359414
-0.00079319145876576
0.1569501779232
-0.00093693316657259
0.15699633781573
-0.0010809854088887
0.15704915948234
-0.0012265088883366
0.15710904103444
-0.0013741656445406
0.15717640174593
-0.0015238447759414
0.15725165484111
-0.0016752728415317
0.15733519553584
-0.0018279648230368
0.15742746609411
-0.0019821806614019
0.15752893339399
-0.0021377059015994
0.15764015784591
-0.0022953270585848
0.15776164314712
-0.0024538775795118
0.1578939747683
-0.0026143273634467
0.15803751907843
-0.0027735560792998
0.1581928540765
-0.0029343235219781
0.15836015102162
-0.0030906490717119
0.15854019778562
-0.003250440218633
0.15873292567307
-0.0034011642613632
0.1589396893837
-0.0035616922570691
0.15915977236101
-0.003703113918321
0.15939564661968
-0.0038688052906619
0.1596448532958
-0.0039914210283503
0.15991225326357
-0.0041713595885878
0.16019139312673
-0.0042543785662059
-0.0044771051232791
0.16049412796109
0.14800463237928
-7.0429142134243e-05
0.14801208312682
-0.00021720362327245
0.14802511090523
-0.00036816533155507
0.14804393008687
-0.00052099582228576
0.1480685169572
-0.0006730571485193
0.14809876819048
-0.00082344270360889
0.14813466347611
-0.00097282846328323
0.14817635036086
-0.0011226723043214
0.14822413901469
-0.0012742975524088
0.14827844526723
-0.0014284719070606
0.14833971043125
-0.0015851099496733
0.14840837313629
-0.0017439355562012
0.1484848593114
-0.0019044510076661
0.14856964596905
-0.0020669673286351
0.14866324239129
-0.0022313023333875
0.14876625687219
-0.0023983415490928
0.14887925012603
-0.0025668708428717
0.14900287105611
-0.0027379483029656
0.14913755956679
-0.0029082445991761
0.1492839760885
-0.0030807400526039
0.14944238662214
-0.0032490596137962
0.14961368689132
-0.0034217404957526
0.14979792970481
-0.0035854070821599
0.14999660990892
-0.0037603724678377
0.15020915678509
-0.0039156608004739
0.15043820116402
-0.0040978496749543
0.1506814450677
-0.0042346649368787
0.15094389858151
-0.0044338131068769
0.15121932566537
-0.0045298056544526
-0.0047774543845302
0.15151967492138
0.139697586839
-7.2398733292127e-05
0.13970410143818
-0.00022371823589185
0.13971557432374
-0.0003796382303611
0.13973222178597
-0.00053764329710318
0.13975402403373
-0.00069485940798816
0.13978088213187
-0.00085030081257832
0.13981278111746
-0.001004727458769
0.13984987462205
-0.0011597658179776
0.13989248145659
-0.001316904395223
0.13994102795151
-0.0014770184096798
0.13999597076701
-0.0016400527723745
0.14005776593819
-0.0018057307343484
0.14012686355653
-0.001973548632783
0.1402037661946
-0.0021438699734697
0.14028901829597
-0.0023165544414978
0.14038326443502
-0.0024925876949198
0.14048711561504
-0.0026707220296076
0.1406012728496
-0.0028521055441459
0.14072624592567
-0.0030332176815887
0.14086276883685
-0.0032172629697643
0.14101119942263
-0.0033974902049939
0.14117253651063
-0.0035830775885184
0.14134694466771
-0.0037598152431694
0.14153606844783
-0.0039494962510225
0.14173947392309
-0.0041190662778833
0.14195999657847
-0.0043183723316435
0.14219550548733
-0.004470173846384
0.14245114854369
-0.0046894561635015
0.14272090191004
-0.0047995590212458
-0.0050731557852575
0.14301660330946
0.13185676592796
-7.4059945681176e-05
0.1318623509066
-0.00022930323126565
0.13187227400097
-0.00038956134138375
0.13188675040077
-0.00055211971244389
0.13190576301055
-0.0007138720317712
0.13192921669692
-0.00087375451140101
0.13195710068491
-0.0010326114576259
0.13198957106412
-0.0011922362066897
0.13202694994342
-0.0013542832827632
0.13206966648963
-0.001519734963187
0.13211818620043
-0.0016885724897207
0.13217297381634
-0.0018605183563717
0.13223449780034
-0.0020350726225923
0.13230327476036
-0.0022126469392112
0.13237987866998
-0.002393158356785
0.13246497432746
-0.0025776833580762
0.13255922010151
-0.0027649678092505
0.13266334890713
-0.0029562343552162
0.13277794406496
-0.0031478128445407
0.13290379049673
-0.0033431094061812
0.13304134609076
-0.0035350458029573
0.13319169188944
-0.0037334233902565
0.1333551032935
-0.0039232266492163
0.1335333584884
-0.0041277514467339
0.13372613254731
-0.0043118403363624
0.13393649408855
-0.0045287338712847
0.13416251996928
-0.0046961997245974
0.13440962381574
-0.0049365600070228
0.13467197287999
-0.0050619080829489
-0.0053619034872724
0.13496072058357
0.12445600702154
-7.5420647632494e-05
0.12446068282365
-0.00023397905830897
0.12446908657611
-0.00039796511940557
0.12448142890498
-0.00056446206555392
0.1244976946717
-0.00073013782057716
0.12451779265546
-0.00089385251496126
0.12454171488426
-0.0010565337039582
0.12456961543656
-0.0012201367745646
0.12460181385237
-0.0013864817124377
0.12463873505275
-0.0015566561761406
0.12468084812908
-0.0017306855776247
0.12472861845005
-0.0019082886882928
0.12478252782155
-0.0020889820046268
0.12484309279854
-0.0022732119265517
0.1249109120006
-0.0024609775690627
0.12498664810061
-0.0026534194682441
0.12507101108294
-0.0028493308015694
0.12516473310664
-0.0030499563886637
0.12526849312149
-0.0032515728686569
0.12538307473233
-0.0034576910256172
0.12550908131022
-0.0036610523884928
0.12564759885433
-0.003871940940795
0.1257990851047
-0.0040747129045937
0.12596536156072
-0.0042940279061522
0.12614624158596
-0.0044927203633266
0.12634494532327
-0.0047274376086908
0.12655957493721
-0.0049108293373157
0.12679632168906
-0.0051733067570137
0.12704937830308
-0.00531496469557
-0.0056428446548189
0.12733031947059
0.117470618166
-7.6495065842542e-05
0.11747442080951
-0.00023778174192725
0.11748136051158
-0.00040490486321263
0.11749163700391
-0.00057473859836736
0.11750523848551
-0.00074373934014289
0.11752208037836
-0.00091069444292717
0.11754215761904
-0.0010766109769921
0.11756561707747
-0.0012435962629434
0.11759276702304
-0.0014136316859406
0.11762402041209
-0.0015879095915828
0.11765984469378
-0.0017665098845626
0.11770070126618
-0.0019491452851727
0.11774708225559
-0.002135363017995
0.11779949241998
-0.0023256221145722
0.1178585495069
-0.0025200346793773
0.11792488868081
-0.0027197586653337
0.11799927731815
-0.0029237194617619
0.11808240322054
-0.0031330823134294
0.1181750826815
-0.0033442523512823
0.11827800897469
-0.0035606173394288
0.11839203657573
-0.0037750800087907
0.11851807395501
-0.0039979783376008
0.11865697239512
-0.0042136113602992
0.11881032949533
-0.0044473850197608
0.1189783997088
-0.0046607905879606
0.11916436368249
-0.0049134015912573
0.11936591149621
-0.0051123771580432
0.11959035989173
-0.0053977551584249
0.11982990308133
-0.0055545078913138
-0.005918849029753
0.12010590744761
0.11087730222582
-7.7312442019116e-05
0.11088029161899
-0.00024077119615015
0.11088585203314
-0.00041046534083667
0.11089416358619
-0.00058305021365646
0.11090522340981
-0.0007547992232474
0.11091895652677
-0.00092442761623167
0.11093536045381
-0.0010930149573871
0.11095456942365
-0.0012628052835931
0.11097687304068
-0.0014359353517059
0.11100266637067
-0.001613702968746
0.11103240993921
-0.0017962534991037
0.11106655884945
-0.0019832942406042
0.11110560862061
-0.0021744128337307
0.11115004448986
-0.0023700580279822
0.11120049435948
-0.0025704845927224
0.11125755251413
-0.0027768168633063
0.11132204511326
-0.0029882121036023
0.11139458420402
-0.0032056214461484
0.11147616141931
-0.0034258296073199
0.11156728005999
-0.0036517360193311
0.11166918893598
-0.0038769889219033
0.11178232371773
-0.0041111131540646
0.11190834000391
-0.0043396276784023
0.11204789266363
-0.0045869377085503
0.11220268362258
-0.0048155815729332
0.11237476972945
-0.0050854877211118
0.11256312112087
-0.0053007285696623
0.11277477089828
-0.0056094049542541
0.11299651468862
-0.0057762516998448
-0.0061898020225135
0.11326746765915
0.10465407239675
-7.7918940320186e-05
0.10465634497019
-0.00024304385287028
0.1046606234872
-0.000414743942675
0.10466709139648
-0.00058951820620667
0.10467575287018
-0.00076346077740306
0.10468655980473
-0.00093523462816734
0.10469950762593
-0.0011059628531431
0.10471469833452
-0.0012779960644082
0.10473239085347
-0.0014536279410444
0.10475296351912
-0.0016342757034269
0.10477688050543
-0.0018201705534353
0.10480460076978
-0.0020110145722072
0.10483661414676
-0.0022064262773543
0.10487337599884
-0.0024068199461383
0.10491549161167
-0.00261260027108
0.10496350774564
-0.0028248330620869
0.10501828425982
-0.003042988681727
0.10508037608752
-0.0032677133364713
0.10515094300635
-0.0034963965870651
0.10523028358743
-0.0037310766588525
0.1053201058595
-0.0039668112494396
0.10542012912315
-0.0042111364695546
0.10553329009624
-0.0044527886995994
0.10565815426672
-0.0047118019232094
0.10579984020185
-0.0049572675483387
0.1059552691853
-0.0052409167406855
0.10613194682077
-0.0054774062375513
0.10632913769053
-0.0058065958537602
0.1065457197857
-0.0059928338241343
-0.0064371425187123
0.10679306024624
0.098780098035962
-7.8298794923303e-05
0.098781755377655
-0.0002447012924024
0.098784781012934
-0.00041776967637973
0.098789561266063
-0.00059429855605592
0.098795965028626
-0.00076986463416643
0.098804077729068
-0.00094334742027066
0.098813886471725
-0.0011157716852559
0.098825456309306
-0.0012895659897879
0.098838999389603
-0.0014671711079382
0.09885485699756
-0.0016501333972103
0.098873481652528
-0.0018387952936549
0.098895340531784
-0.0020328735363317
0.098920929758357
-0.0022320155883654
0.098950689466678
-0.0024365797385055
0.09898518665457
-0.002647097542407
0.099024913560518
-0.0028645600507513
0.099070710243568
-0.0030887854462934
0.099123097565931
-0.0033201007387033
0.099183336522574
-0.0035566356209935
0.09925163210047
-0.0037993723106105
0.09933004148902
-0.0040452207073476
0.099417761933135
-0.0042988569780202
0.099518876493757
-0.0045539033192024
0.099629874291373
-0.004822799774586
0.09975982391543
-0.0050872172208483
0.099897968269513
-0.0053790611378015
0.10006479964492
-0.0056442376510145
0.10023430870395
-0.0059761049478827
0.10045051016595
-0.006209035321983
0.10070012016371
-0.0066867525597328
0.39442144384273
0.0046632193303071
0.3899162621744
0.0045051816411455
0.38557362288342
0.0043426392639198
0.38139791337459
0.0041757094815299
0.37739338159103
0.0040045317559333
0.37356413299711
0.0038292485657905
0.36991412452357
0.0036500084449631
0.36644715529232
0.0034669692021312
0.36316685780434
0.0032802974584215
0.36007669188933
0.0030901658849165
0.35717994087795
0.002896750980917
0.35447970933827
0.0027002315087354
0.35197892216637
0.0025007871406686
0.34968032533238
0.0022985968023719
0.34758648762671
0.0020938376738597
0.34569980284926
0.0018866847453538
0.34402249136014
0.0016773114569314
0.3425566003661
0.0014658909616459
0.34130400249433
0.001252597839386
0.34026639265414
0.0010376098076895
0.33944528360901
0.00082110901270268
0.33884199959288
0.00060328398362741
0.33845766660198
0.0003843329585212
0.33829317664279
0.0001644899267369
0.33834925226582
-5.607565534015e-05
0.33862672242288
-0.00027747018945938
0.33912579436548
-0.00049907197486846
0.33984663054995
-0.0007208362168208
0.34078920793912
-0.00094257742140361
0.34195330386934
-0.0011640959625275
0.34333848982155
-0.0013851859843576
0.34494413016265