/*--------------------------------*- C++ -*----------------------------------*\
| =========                 |                                                 |
| \\      /  F ield         | OpenFOAM: The Open Source CFD Toolbox           |
|  \\    /   O peration     | Version:  2112                                  |
|   \\  /    A nd           | Website:  www.openfoam.com                      |
|    \\/     M anipulation  |                                                 |
\*---------------------------------------------------------------------------*/
FoamFile
{
    version     2.0;
    format      ascii;
    arch        "LSB;label=32;scalar=64";
    class       volScalarField;
    location    "8.4";
    object      p;
}
// * * * * * * * * * * * * * * * * * * * * * * * * * * * * * * * * * * * * * //

dimensions      [0 2 -2 0 0 0 0];

internalField   nonuniform List<scalar> 
22000
(
0.0022249151150163
0.0022026669635537
0.002156789359347
0.002086013246958
0.0019898135626947
0.0018682854762498
0.0017217761906428
0.0015506447934535
0.0013551904328248
0.0011356735332297
0.00089235648983299
0.00062553606716286
0.00033555175829415
2.2790551795196e-05
-0.00031232511676775
-0.00066933166551857
-0.0010477424398623
-0.0014470243801943
-0.0018666301631254
-0.0023059465369163
-0.002764364926901
-0.0032411741752347
-0.0037357156155643
-0.0042471504726051
-0.0047748070824341
-0.0053176695398552
-0.0058751530948304
-0.0064459516596608
-0.0070297787865249
-0.0076248249926877
0.0026423429953619
0.0026186919068847
0.00257093336794
0.0024979304797785
0.0023991367600951
0.002274572767696
0.0021245226486966
0.0019493126268224
0.0017492288247242
0.0015245261145213
0.0012754617600774
0.0010023268577725
0.00070545312983182
0.00038522036073545
4.2042156821571e-05
-0.00032362271391664
-0.00071129450099093
-0.001120438191146
-0.0015505103368862
-0.0020008858956542
-0.0024709636706593
-0.0029600099402863
-0.0034673911707484
-0.003992224449858
-0.0045339075148186
-0.0050913204205965
-0.0056640507751433
-0.006250568393885
-0.0068509986417822
-0.0074632092050358
0.0034102564531145
0.0033854673269601
0.0033355126010535
0.0032593107841849
0.0031563495655189
0.0030266474450474
0.002870470139604
0.002688124429454
0.0024798793961283
0.0022459754386677
0.001986655838426
0.001702198544575
0.0013929203837104
0.0010591880969182
0.00070139983885593
0.0003200047967338
-8.4531969132172e-05
-0.00051167773152963
-0.00096090473458633
-0.0014315771421621
-0.0019231158653392
-0.0024347493753814
-0.0029658878538693
-0.0035155526538332
-0.0040832538140905
-0.0046676394706235
-0.0052685935898699
-0.0058840801360344
-0.0065149708903409
-0.0071583609955506
0.0044830072755763
0.0044568993285825
0.0044042930486518
0.0043240693684128
0.0042157076573651
0.0040792266383421
0.0039148879994655
0.0037229866471873
0.0035037719538388
0.0032574611282221
0.0029842728133994
0.0026844618803915
0.0023583203792668
0.0020061930457151
0.0016284522584014
0.0012255289740374
0.00079786204845859
0.00034597549583317
-0.00012963094033819
-0.00062831109278858
-0.0011495230425219
-0.0016924472337624
-0.002256563705824
-0.0028407626418104
-0.0034447247263491
-0.0040667757403477
-0.00470724659054
-0.0053634027213553
-0.0060372366916883
-0.0067247832196218
0.0058218154642612
0.0057941712076891
0.0057384668207872
0.0056535279881916
0.005538810482859
0.0053943226522271
0.0052203155622745
0.005017066275517
0.0047847958941174
0.0045236869082985
0.0042339195733853
0.0039157112440359
0.0035693136643067
0.0031950342851479
0.002793202720614
0.0023642162185687
0.0019084688555205
0.0014264619494869
0.00091864680374281
0.00038567065527242
-0.00017198601891907
-0.00075345388686827
-0.0013583180554028
-0.001985310337154
-0.0026343483739967
-0.0033033511466025
-0.0039932457062045
-0.0047003958484713
-0.0054282491494609
-0.0061714410737081
0.0073929630155684
0.0073636413930959
0.0073045529325093
0.0072144621672481
0.0070927945169885
0.0069395381361396
0.0067549216505002
0.0065391911807875
0.0062925248340936
0.0060150541682184
0.0057069032906579
0.0053682332774645
0.0049992350609728
0.0046001579094611
0.0041712657062785
0.0037129002840162
0.0032253859379046
0.0027091806679249
0.0021646599240725
0.0015924557236799
0.00099295528280592
0.00036707244563901
-0.00028492517429909
-0.00096159122995278
-0.0016631530897808
-0.0023870422966795
-0.003134932392178
-0.0039020880137974
-0.0046937454799754
-0.0055028290989211
0.0091661863141322
0.0091351386403599
0.0090725640097868
0.0089771615041531
0.0088483205330824
0.008685998986179
0.0084903893592908
0.0082616908176414
0.0080000205691269
0.0077054397876609
0.0073779952082384
0.0070177688539641
0.006624865674305
0.0061994504655464
0.0057416923667926
0.0052518494088396
0.0047301438007664
0.0041769617767249
0.0035925670764561
0.0029775513817538
0.0023321676910573
0.0016573593036813
0.0009531940055262
0.00022130751613625
-0.00053891901778754
-0.0013243611826486
-0.002137599532296
-0.0029726189502409
-0.0038367893216747
-0.0047210496092807
0.011113428994053
0.011080696941304
0.011014715559638
0.010914116462742
0.010778247720709
0.010607025978209
0.010400592374532
0.010159081146946
0.0098825283492645
0.0095709024715347
0.0092241482463312
0.0088422418232654
0.0084251723472774
0.0079729885650117
0.0074857299490381
0.0069635357527846
0.0064064865219484
0.0058148603189802
0.0051887646672149
0.0045287165608943
0.0038347837235631
0.0031079136770591
0.0023479114475996
0.0015565997817207
0.00073287398405833
-0.00011953015001881
-0.0010042708947454
-0.0019138924113924
-0.0028582472770852
-0.0038260519597405
0.013208062556307
0.013173775537169
0.013104643382112
0.012999230589974
0.012856839048003
0.01267733234548
0.012460783633569
0.012207242659077
0.011916642394921
0.011588834392933
0.011223634337953
0.010820882675972
0.010380419325299
0.0099021411400868
0.0093859180171552
0.0088317296382958
0.0082394686141506
0.0076092607720508
0.0069410043611458
0.006235097600361
0.0054913616738102
0.0047107106598559
0.0038926112417471
0.0030390577795285
0.0021483541217127
0.0012248835107316
0.00026373023319023
-0.00072607216012547
-0.0017572131037815
-0.0028160025055507
0.015424470176277
0.015388840112709
0.015316979854864
0.015207389209462
0.015059319240197
0.014872568131292
0.01464712394176
0.014382932032693
0.014079800000725
0.013737437537134
0.01335550308361
0.012933669799701
0.012471592599634
0.011968977544454
0.011425481220259
0.010840878144656
0.010214821009125
0.0095472324491582
0.0088377406684824
0.0080865718104572
0.0072932294091046
0.0064585447076548
0.0055815598966538
0.0046644070702789
0.0037046801659027
0.0027074215419139
0.0016662719951966
0.00059193889794581
-0.00053144145138881
-0.0016876526602648
0.01773788986942
0.01770120344727
0.017627189141892
0.017514285907701
0.017361689608739
0.017169121069695
0.016936466937424
0.016663549302687
0.016350029081742
0.01599544985362
0.015599284848341
0.015161008109286
0.01468005305521
0.014155894696912
0.013587930461741
0.012975680959918
0.012318502913911
0.011616059292445
0.010867641206388
0.010073240929384
0.0092319653885389
0.0083445012593413
0.0074093722386891
0.0064287979957629
0.0053995456758408
0.0043272852366596
0.0032040422391701
0.0020421736726226
0.00082231568126026
-0.00043676192580323
0.020124437689935
0.020087046152124
0.0200115827144
0.01989642995529
0.019740724702203
0.019544099840932
0.019306326441279
0.019027086836844
0.018705876254069
0.018342049997409
0.01793487001914
0.017483581087486
0.01698735999003
0.016445411181956
0.015856827145434
0.015220824772621
0.014536406847082
0.013802916362014
0.013019235814207
0.012185053660084
0.011298994343878
0.010361522633124
0.009370547458238
0.0083282904123496
0.0072306133161939
0.0060836949599737
0.0048780324100993
0.003627211861609
0.0023089287133936
0.00094217292419533
0.022561247701349
0.022523552216111
0.022447449921716
0.022331269873376
0.022174086267006
0.021975436356321
0.021734965017949
0.021452201715536
0.021126460353446
0.020756889380851
0.020342517164953
0.019882332747654
0.019375224684487
0.018820090432186
0.01821567434379
0.017560841313395
0.016854183215564
0.01609466150801
0.015280677603041
0.014411539284841
0.013485301696929
0.012502106791366
0.011459165227352
0.010358521520692
0.0091951704064636
0.0079752435837965
0.0066884874317162
0.0053478633457005
0.0039318011961889
0.0024576417057625
0.025026688917208
0.024989124503296
0.024913262018517
0.024797385120274
0.024640505048824
0.024442058369556
0.024201556360737
0.023918365877122
0.023591607790852
0.023220210005328
0.022802950579175
0.022338542112147
0.021825559024374
0.021262560691104
0.020647905418352
0.019980062151962
0.019257159243302
0.018477716643483
0.017639585767146
0.016741611955197
0.015781201603733
0.014758050825757
0.013668617181375
0.012514541479653
0.011290001515855
0.010000757810388
0.0086356469343751
0.0072077295714638
0.0056930569191772
0.0041108251726715
0.027500578897802
0.027463599794823
0.027388891664478
0.027274707036107
0.027119998745225
0.026924101356198
0.026686388603672
0.026406059427762
0.026082035246928
0.02571301537178
0.025297516963004
0.024833962470573
0.024320593938611
0.023755609303737
0.02313695087489
0.022462654861057
0.021730341152729
0.020938033243084
0.020082970705477
0.019163455197337
0.018176169746734
0.01712024321672
0.015991299729063
0.014790423387785
0.013510820022924
0.012157874743594
0.010718963265437
0.0092075911520723
0.0075968870600909
0.0059067439361677
0.029964377300445
0.029928441176677
0.029855809242426
0.029744721239087
0.029594080328725
0.029403120692028
0.029171077730554
0.028896981665848
0.028579554404727
0.028217266584587
0.027808372285663
0.027350997871803
0.026843042897525
0.026282329703921
0.025666364848701
0.02499272498548
0.024258487096481
0.023461132460434
0.022597235918659
0.021664483174469
0.020658758935269
0.019578522241469
0.018418450909323
0.017178968855756
0.015852088607319
0.014442800653724
0.012936634243878
0.01134745575256
0.0096451657549421
0.0078496268707213
0.032401360759843
0.032366914326668
0.032297260980753
0.032190647819553
0.032045939298755
0.031862274411484
0.031638753587508
0.03137424255381
0.031067269730967
0.030716083946885
0.030318682132854
0.029872898583238
0.029376290948222
0.028826302076928
0.028219994065924
0.027554469205332
0.026826239765792
0.02603221224232
0.025168254991283
0.024231381051087
0.02321660450231
0.022121634014262
0.020940071148574
0.019671598864974
0.018306803065162
0.01685023347526
0.015285208229772
0.013625895354336
0.011838322866043
0.009942071846279
0.034796750167905
0.03476421697726
0.034698398877054
0.034597572475669
0.034460576938062
0.034286464362836
0.034074208165159
0.033822519261583
0.033529744276409
0.033193923454027
0.032812809856732
0.032383958344696
0.03190459563607
0.031371793774083
0.030782174680542
0.03013236471792
0.029418304081092
0.028636307664259
0.027781510671714
0.02685021422383
0.025836502351561
0.024737269910396
0.023544926072149
0.022258318143036
0.020866419491201
0.019373173736307
0.017759518841775
0.016039671152305
0.014175250065149
0.012185670972621
0.037137778381613
0.037107548597971
0.0370463560689
0.036952529245083
0.03682489645311
0.036662434935455
0.036464003679532
0.036228173399581
0.035953126215581
0.035636713442932
0.035276465047207
0.03486967745053
0.034413266838383
0.033903953527296
0.033337936588449
0.032711379206969
0.032019657884208
0.031258495043642
0.030422285851292
0.029506597851932
0.028504548854258
0.027412171536751
0.026220599666448
0.024927752973384
0.023520851598334
0.022002967238701
0.020352526974509
0.018583159541607
0.016652092197262
0.014576983735758
0.039413694382351
0.039386123237708
0.039330269017132
0.039244531227919
0.039127744571745
0.038978828919267
0.038796545823824
0.038579342974329
0.038325258345249
0.038031978861126
0.037696839771411
0.037316908536804
0.036888821924388
0.03640897788512
0.035873184088394
0.035277165697239
0.034615763630822
0.033884119145096
0.033075905468762
0.032185943615555
0.031206387285216
0.030132355400918
0.028953681435215
0.027667261959344
0.026258513999304
0.024729446345343
0.023055714992449
0.021249614608484
0.019263435597189
0.017111302781229
0.04161569751672
0.041591108443931
0.041541235058857
0.041464549963759
0.041359909066532
0.041226202549763
0.041062119697167
0.040866004651693
0.040635773097134
0.040368974661508
0.040062783911709
0.039714072769557
0.039319238107112
0.038874390555733
0.038374994153781
0.037816369928424
0.037192880724705
0.036499107227793
0.035728065465093
0.034873812372205
0.033927607015702
0.032883569085709
0.031730291436522
0.030463475711487
0.029066776085337
0.027541083786134
0.025859317876388
0.024032378846496
0.022005792277933
0.019787611336718
0.043736834002321
0.043715486229835
0.043672145142953
0.04360535166104
0.043513990927409
0.043396939837518
0.043252834343443
0.043079938501767
0.042876075939987
0.0426386921976
0.042364844934458
0.042051246559997
0.041694101671619
0.041289267243553
0.040831925094526
0.040317015106869
0.039738506363699
0.039090418530375
0.038365247459714
0.037556232625527
0.036653963142082
0.035651372711203
0.034536145616521
0.033302335000196
0.031932136679895
0.030424692501966
0.028750452678653
0.026920376708387
0.024872286726548
0.022607547570721
0.045771986538085
0.045753958499334
0.045717428831549
0.045661073224313
0.045583869774294
0.045484676409976
0.04536203742173
0.045214125176555
0.045038701330859
0.044833145658409
0.044594451334734
0.044319210151971
0.044003492021757
0.04364293959122
0.04323253657864
0.042766859337137
0.04223959293895
0.041644135912491
0.040972645299491
0.04021734044901
0.039368554510864
0.038417547846725
0.03735203381073
0.036163240858728
0.034833661928824
0.033357760143442
0.031705374802525
0.02988317558827
0.027827016380246
0.025539958202116
0.047718046544549
0.047703213911639
0.047673275226469
0.047627231657246
0.047564312642298
0.047483427360543
0.047383029306967
0.047261155191007
0.047115473382256
0.046943340159703
0.046741684807877
0.046506983773149
0.04623520773398
0.045921810472126
0.045561645127254
0.045148959429872
0.044677280203413
0.044139373661008
0.043527251739366
0.042831874270142
0.04204370039464
0.041151502656095
0.040144251822223
0.039008105000056
0.037729901368921
0.036293112099532
0.034676811761047
0.032861334754767
0.030794307322313
0.028450775720136
0.049574272867598
0.049562814701739
0.049539173915861
0.049503199707347
0.049454191485428
0.049391103452041
0.049312546452287
0.049216679946909
0.049101269810245
0.048963617417672
0.04880048136346
0.048608170918881
0.048382560468077
0.048118940684092
0.047812078560933
0.047455959413114
0.047044062201466
0.046568681171481
0.046021921192525
0.045393716402571
0.044674945787871
0.043851817217615
0.042915018776535
0.041844389706214
0.040633692624502
0.03925118529771
0.03769955174605
0.035916181827223
0.033891856036342
0.031396141333622
-0.0081939088595919
-0.0087346615453674
-0.009283187957182
-0.0098382733708413
-0.01039886215285
-0.010964149426177
-0.011533436886695
-0.012106004274385
-0.012681089721246
-0.013257913490925
-0.013835689156819
-0.014413626422462
-0.014990936293787
-0.015566834693431
-0.016140543382725
-0.016711289471773
-0.017278304694958
-0.017840826735436
-0.018398101352703
-0.018949383338726
-0.019493935763315
-0.020031026381631
-0.020559920067667
-0.021079868328464
-0.021590121554104
-0.022090230097247
-0.022579673765955
-0.023057814920781
-0.023523992840325
-0.023977589312705
-0.024418045751216
-0.024844851005765
-0.02525752925539
-0.025655629738422
-0.02603873101721
-0.02640643374347
-0.026758374920629
-0.02709420904018
-0.027413637989091
-0.027716364956668
-0.028002163109234
-0.028270771235756
-0.028522051362659
-0.028755752237956
-0.028971867669973
-0.029170104153272
-0.029350689216273
-0.02951317878123
-0.029658318214696
-0.029785361352785
-0.0080456331952075
-0.0085960256086564
-0.0091553430840991
-0.0097212933733879
-0.010292437996695
-0.010868160999793
-0.01144804923576
-0.012031532342626
-0.012617895810263
-0.013206374560595
-0.013796182444073
-0.014386517532339
-0.014976575855123
-0.015565559324539
-0.016152671766696
-0.016737113550429
-0.017318082060911
-0.017894774822567
-0.018466392674811
-0.019032141919388
-0.019591239091243
-0.02014291966951
-0.020686456619744
-0.021221185845836
-0.021746509036394
-0.022261509110452
-0.022765391416648
-0.023257519831172
-0.023737318700988
-0.024204216751908
-0.024657648181848
-0.025097068197206
-0.025521969373323
-0.025931872133845
-0.02632633590065
-0.026704942453274
-0.027067327554553
-0.027413137141538
-0.027742090794169
-0.028053884220273
-0.02834833325568
-0.028625159713926
-0.028884305278083
-0.029125465649726
-0.02934877096572
-0.029553776201653
-0.02974091839846
-0.029909311949108
-0.030059841091673
-0.030190119987451
-0.0077679995117104
-0.0083429842931288
-0.0089294856120771
-0.0095227905296043
-0.010120433531677
-0.010721985440493
-0.011327478188071
-0.011936553915988
-0.012548524070246
-0.013162598408108
-0.013777951763473
-0.014393736936337
-0.015009114949686
-0.015623267606044
-0.016235383536285
-0.01684464442512
-0.017450225256318
-0.018051301143788
-0.018647053060765
-0.019236671732006
-0.019819360016375
-0.020394333560981
-0.020960816748749
-0.021518026387151
-0.022065157448066
-0.022601512604069
-0.023126406873889
-0.02363917803394
-0.024139202105693
-0.024625881873095
-0.025098645616698
-0.025556945686645
-0.026000278097824
-0.026428166900286
-0.026840190614847
-0.027235943039834
-0.027615092394084
-0.027977293669592
-0.028322316275309
-0.028649854700445
-0.02895980535945
-0.029251858785504
-0.02952609141154
-0.029782096694971
-0.030020240241461
-0.030239806718445
-0.030441630442825
-0.03062405834015
-0.030788314096123
-0.030929005121436
-0.0073744786207318
-0.0079876968949205
-0.0086160040930102
-0.0092508380493414
-0.0098881773520868
-0.010527929327234
-0.011170854415735
-0.011816953877139
-0.012465595875001
-0.013115962310016
-0.013767185448302
-0.014418374559204
-0.015068667754246
-0.015717248877582
-0.016363316560194
-0.017006056435236
-0.017644640987942
-0.018278239925571
-0.018906028441528
-0.019527188659547
-0.020140910269234
-0.020746393289211
-0.021342849473367
-0.021929512527987
-0.02250565417855
-0.023070554392387
-0.023623532545129
-0.0241639488314
-0.024691180500112
-0.025204609949003
-0.025703664667099
-0.026187818384493
-0.026656600160471
-0.027109552529425
-0.027546284540053
-0.027966405576325
-0.028369630096397
-0.028755621411
-0.029124216229495
-0.029475096557106
-0.029808264984173
-0.030123352190905
-0.03042061420854
-0.03069948068784
-0.030960634996452
-0.03120294992707
-0.031427783100125
-0.031632310248834
-0.031818091270483
-0.031975113460336
-0.0068723166564551
-0.007535726630418
-0.0082188802160163
-0.008907906563769
-0.0095967155402445
-0.010285733531667
-0.010976759155023
-0.011670305331579
-0.012365815799996
-0.013062424793776
-0.013759204565607
-0.014455213110178
-0.015149569949128
-0.015841474020571
-0.016530148178915
-0.017214793291281
-0.017894587611724
-0.018568703830616
-0.019236321448421
-0.019896628073074
-0.020548823067559
-0.021192120291807
-0.021825750404525
-0.022448971194924
-0.023061062955142
-0.0236613206285
-0.024249084660435
-0.02482372661371
-0.0253846258743
-0.025931182232699
-0.026462868805087
-0.026979198109074
-0.027479735705074
-0.027964047044906
-0.028431789623345
-0.028882598330631
-0.029316252756721
-0.029732427448356
-0.030131050405118
-0.030511786024794
-0.030874776462507
-0.031219572667968
-0.031546660159609
-0.031855255477727
-0.032146436894283
-0.032418549979838
-0.032673591578432
-0.032907245514481
-0.033121432050138
-0.033300162135428
-0.0062647694448046
-0.0069893878245472
-0.0077397232574471
-0.0084949711228588
-0.0092464006442771
-0.0099951465874937
-0.010744376772205
-0.011495276134333
-0.012247372902643
-0.012999717157105
-0.01375129058821
-0.014501084694552
-0.015248200584743
-0.015991862537783
-0.016731329026196
-0.017465823919058
-0.018194536958721
-0.018916651333318
-0.019631360275883
-0.020337869142354
-0.021035398182246
-0.021723179261417
-0.022400464618274
-0.023066530401552
-0.023720670251101
-0.024362231369749
-0.024990613370819
-0.025605197389204
-0.026205373294408
-0.026790595825835
-0.027360411116968
-0.027914371883758
-0.028452090553514
-0.028973174178728
-0.029477356095268
-0.029964309782261
-0.030433906531734
-0.03088584273519
-0.031320172474058
-0.03173654794238
-0.032135294492337
-0.032515878363878
-0.032879070965014
-0.033223853115854
-0.033551775290569
-0.033860592200268
-0.034153038483901
-0.03442308482077
-0.034672977082967
-0.034879561862607
-0.005553062878484
-0.0063494029195625
-0.0071789430836715
-0.0080121050572065
-0.0088368966861304
-0.0096553869314684
-0.010472488012245
-0.011290235555036
-0.012108245858336
-0.012925435351841
-0.013740655625076
-0.014552814045501
-0.015360994400023
-0.01616445701517
-0.01696250637462
-0.017754395436668
-0.018539328972452
-0.019316504386878
-0.020085134220151
-0.020844447442363
-0.021593692651787
-0.022332129206777
-0.023059043997358
-0.023773752436757
-0.024475578151285
-0.025163903232255
-0.025838196778938
-0.026497899355347
-0.027142457088249
-0.027771380036913
-0.02838427857126
-0.028980759846203
-0.029560520449778
-0.030123232290943
-0.030668732108349
-0.031196749435787
-0.031707284123468
-0.032200071856993
-0.032675335825519
-0.033132729688388
-0.033572812149423
-0.033994975309778
-0.034400334615075
-0.034787642313801
-0.035158983467462
-0.035511513062723
-0.035848748386082
-0.036162815241127
-0.036456099056525
-0.036697202087745
-0.00473634405044
-0.0056146098934537
-0.0065352965749824
-0.0074579412566217
-0.0083666134853503
-0.0092645936608196
-0.010158969754332
-0.011052828965014
-0.011945872357505
-0.012836817239207
-0.013724334911124
-0.014607227684587
-0.015484563395482
-0.016355649502964
-0.017219845610945
-0.018076436326613
-0.018924641407879
-0.019763673427145
-0.02059276749892
-0.021411184751206
-0.02221820594861
-0.02301312590227
-0.023795273868899
-0.024563988723653
-0.025318662601218
-0.026058802639742
-0.026783918878506
-0.027493445311116
-0.028186912782785
-0.02886394405728
-0.029524245043288
-0.030167491033246
-0.03079349143987
-0.031402005987293
-0.031993011647599
-0.032566315951341
-0.033122092046303
-0.033660140228454
-0.03418090481658
-0.034684068980697
-0.03517048056046
-0.035639493617362
-0.036092618804696
-0.036528432239811
-0.036949585048486
-0.037352708262972
-0.037742073463664
-0.038107996816165
-0.038452680643506
-0.038735740427604
-0.0038120252571653
-0.0047822945481948
-0.0058062049771589
-0.0068299739654244
-0.0078329968338665
-0.0088201100745802
-0.0098010737227224
-0.010780247492026
-0.01175740182575
-0.012730970129284
-0.01369938169256
-0.014661310902105
-0.015615812573529
-0.016562251864435
-0.017500049370131
-0.018428520477609
-0.019346895786977
-0.020254400372296
-0.021150292166295
-0.022033866347592
-0.022904444265325
-0.023761370709202
-0.024604039383025
-0.025431834700118
-0.026244192301083
-0.027040678331536
-0.027820884113355
-0.028584335706662
-0.029330681693657
-0.030059634606809
-0.030771006864247
-0.031464572104053
-0.032140292367526
-0.0327980366291
-0.033437964342221
-0.03405999346154
-0.034664525291888
-0.035251463391736
-0.035821532713622
-0.036374500296555
-0.036911560454522
-0.0374321103976
-0.037938091424264
-0.038428034596122
-0.038905138425489
-0.0393657243524
-0.039814679661168
-0.04024078166909
-0.040645508054445
-0.040979157113461
-0.0027761129563995
-0.0038484988051585
-0.0049880278488941
-0.0061247804506063
-0.0072326956489154
-0.0083186021907821
-0.0093955009841915
-0.010469261379017
-0.011539689418078
-0.012604826746605
-0.01366278750294
-0.014712094454609
-0.015751794332142
-0.016781320814258
-0.017800158689995
-0.018807648664352
-0.019803025238007
-0.020785520270186
-0.021754415122571
-0.022709037799578
-0.023648746530927
-0.024572938881479
-0.025481035631131
-0.026372508909708
-0.027246961681209
-0.028103992413054
-0.028943137394344
-0.029764054729539
-0.030566605808814
-0.031350611381706
-0.032116005514502
-0.032862681676737
-0.033590792665325
-0.034300345401526
-0.034991731210125
-0.035665018644186
-0.036320892489762
-0.036959421278041
-0.037581667441195
-0.038187577038259
-0.038778732286378
-0.039354726344811
-0.039917928802162
-0.040467078538381
-0.041005823619847
-0.041530585103002
-0.042046572531866
-0.042541619692824
-0.043015669487571
-0.043409940309853
-0.0016235640792203
-0.002808264744226
-0.0040762267135358
-0.0053381335651856
-0.0065616345681085
-0.0077560978417008
-0.0089384141042037
-0.010116208584438
-0.011289262297171
-0.012455090876657
-0.013611409401907
-0.014756567440754
-0.015889612655344
-0.01701005633727
-0.018117444728303
-0.019211132748507
-0.020290345606406
-0.021354313582666
-0.022402334776966
-0.023433768979787
-0.024448017806656
-0.025444528987966
-0.026422792474751
-0.027382315950295
-0.028322739070384
-0.02924378393752
-0.030145170527355
-0.031026643178339
-0.031888157889448
-0.032729649512578
-0.033551240948438
-0.034352979588936
-0.035135244373821
-0.035898216919533
-0.036642564448726
-0.037368572340265
-0.038077252981776
-0.038768947275879
-0.039445083913732
-0.040105959321451
-0.040753533904264
-0.041387864084036
-0.04201166135531
-0.042624294826631
-0.04322963319356
-0.043824874328202
-0.044415053794867
-0.044988104162788
-0.045541306829057
-0.046007846024664
-0.0003487611220718
-0.0016562881350447
-0.0030657542610956
-0.0044651515656498
-0.0058150803594777
-0.0071280368589531
-0.0084254733370384
-0.0097170119751232
-0.011002318114529
-0.012278218565992
-0.013541936410558
-0.014791630991295
-0.016026363864085
-0.01724573089748
-0.018449330074101
-0.01963651174036
-0.020806474245132
-0.021958434374445
-0.023091700537972
-0.024205658361261
-0.025299747803887
-0.026373452248046
-0.027426284276672
-0.028457817725505
-0.029467831324979
-0.030456156254301
-0.031422585661653
-0.032366977295202
-0.033289447887541
-0.034190067796533
-0.035069167122358
-0.035926975230335
-0.03676412160776
-0.037581020304756
-0.038378636453112
-0.039157578608273
-0.039919183715171
-0.040664259262769
-0.041394552602952
-0.042111028268636
-0.042815902848718
-0.043510172509312
-0.044196651386667
-0.04487601794038
-0.045551933026907
-0.046223365404711
-0.046894420337469
-0.047554666580546
-0.048197251961984
-0.048749380190764
0.0010557617284867
-0.00038704813479622
-0.0019517329621237
-0.0035008299921309
-0.0049879311711963
-0.0064294411260352
-0.0078519570580354
-0.0092672570875568
-0.01067476016005
-0.012070419025252
-0.013450864646648
-0.014814054469429
-0.01615908142325
-0.017485626925492
-0.018793320173331
-0.020081478123721
-0.02134924782981
-0.022595814134588
-0.023820481557167
-0.025022652549705
-0.026201799146724
-0.027357456850006
-0.028489174257275
-0.029596489853305
-0.030679297560322
-0.031737629782022
-0.032771356534594
-0.033780419980644
-0.03476511574582
-0.035725682297178
-0.036662667093297
-0.037576523562207
-0.038468133982362
-0.039338236739169
-0.040188063589733
-0.041018723495328
-0.041831790832178
-0.04262885581015
-0.043411794577465
-0.044182773950095
-0.044943932212145
-0.045698016123714
-0.046447434373074
-0.047195293719185
-0.04794433773408
-0.048696771855684
-0.049454740242077
-0.050211486052559
-0.050954230705942
-0.051607283599441
0.0025967173935775
0.0010075380013743
-0.00072750974684371
-0.0024394437298271
-0.0040745679713195
-0.0056547889925619
-0.0072126669123512
-0.0087621537104017
-0.010302186019355
-0.011827640262999
-0.013334471204236
-0.014820438777996
-0.016284686945311
-0.017726975518534
-0.019146931627082
-0.020543800609983
-0.021916647409269
-0.02326460112303
-0.024586942351836
-0.025883066557262
-0.027152459230137
-0.028394678961258
-0.029609357896557
-0.030796236147422
-0.031954865732646
-0.033085460423863
-0.034188062096833
-0.035262856023765
-0.036310289474629
-0.037330765017424
-0.038325024929146
-0.039293815630689
-0.040238226217223
-0.041159462845786
-0.042058930218574
-0.042938492034855
-0.04379977529636
-0.044645589542882
-0.045477605816184
-0.046299933824325
-0.04711404960784
-0.047925641151007
-0.048735803913502
-0.049551780562133
-0.050374196843654
-0.051210684842923
-0.052060049496976
-0.05292191155463
-0.053775733045978
-0.054547105429046
0.0042792857247235
0.0025333555043685
0.00061326764259283
-0.0012748970076506
-0.0030691745249812
-0.0047983894350142
-0.0065021487675474
-0.0081966367129981
-0.0098799409720058
-0.011545594503105
-0.013188811711832
-0.014807189523543
-0.016399948176875
-0.01796690315734
-0.019507627803354
-0.021021246809731
-0.022506706796817
-0.023963054964882
-0.025389521758981
-0.026785466946842
-0.028150350699937
-0.029483681911453
-0.030785176026638
-0.032054802305014
-0.033292112518064
-0.034496923743404
-0.035669626007556
-0.03681068933024
-0.037920650640103
-0.039000126866169
-0.040050017903974
-0.041071462020884
-0.042065669592702
-0.043034509432348
-0.043979394900737
-0.044903263646108
-0.045807555302033
-0.046696771474788
-0.047572026274313
-0.048440136895025
-0.049301293447855
-0.050165476002876
-0.051031319784983
-0.051912427657881
-0.052805508728902
-0.053726732852567
-0.05466932694549
-0.055643008538234
-0.056617889195802
-0.057525475587707
0.006108905586834
0.0041957062287006
0.0020761102438633
-1.329216241005e-06
-0.0019657736849573
-0.0038543869075905
-0.0057148308600772
-0.0075655127477872
-0.009403211211057
-0.011219806305732
-0.013009739735694
-0.014770515060346
-0.016501453845323
-0.018202384753961
-0.019872758152207
-0.021511515667566
-0.023117443278185
-0.024689473642337
-0.026226754666014
-0.027728579585273
-0.029194352259984
-0.03062355570042
-0.032015852648659
-0.033371013449746
-0.034689144889107
-0.035969888326171
-0.037213649088173
-0.038420950891724
-0.039592482990832
-0.040729151928199
-0.041831965198506
-0.042902554941401
-0.043942151117238
-0.044953486083101
-0.045937813860489
-0.04689945507553
-0.04783944109263
-0.048764348321248
-0.049674554520125
-0.050580077400133
-0.051479571700116
-0.052388226014536
-0.053301480849977
-0.054241313435785
-0.055198910142403
-0.056202564316426
-0.057237294546362
-0.058328146402428
-0.05943357298087
-0.060494789390301
0.00809004885092
0.005999122071982