/*--------------------------------*- C++ -*----------------------------------*\
| =========                 |                                                 |
| \\      /  F ield         | OpenFOAM: The Open Source CFD Toolbox           |
|  \\    /   O peration     | Version:  2112                                  |
|   \\  /    A nd           | Website:  www.openfoam.com                      |
|    \\/     M anipulation  |                                                 |
\*---------------------------------------------------------------------------*/
FoamFile
{
    version     2.0;
    format      ascii;
    arch        "LSB;label=32;scalar=64";
    class       surfaceScalarField;
    location    "8.4";
    object      phi;
}
// * * * * * * * * * * * * * * * * * * * * * * * * * * * * * * * * * * * * * //

dimensions      [0 3 -1 0 0 0 0];

oriented        oriented;

internalField   nonuniform List<scalar> 
43645
(
0.3951239192161
-5.046128750917e-06
0.39513903598601
-1.5116741887813e-05
0.39516416369686
-2.5127680546505e-05
0.39519916212652
-3.4998398349725e-05
0.39524384633238
-4.4684174418334e-05
0.3952980303144
-5.4183950885584e-05
0.39536155396038
-6.3523615464107e-05
0.39543428658168
-7.2732591444307e-05
0.3955161105052
-8.1823894440655e-05
0.39560690969228
-9.0799158752891e-05
0.39570655320514
-9.9643485343572e-05
0.39581490085321
-0.00010834762129116
0.39593179019795
-0.00011688931878036
0.39605706212837
-0.00012527190516868
0.39619053459065
-0.00013347243781237
0.39633205163991
-0.0001415170254391
0.39648140914101
-0.00014935747800059
0.39663844651825
-0.00015703735471367
0.39680288108866
-0.00016443454851572
0.39697452771812
-0.00017164660802822
0.39715297435345
-0.00017844661442169
0.39733809565881
-0.00018512128481411
0.3975293634894
-0.00019126781047297
0.39772694205086
-0.00019757854159297
0.39793013982811
-0.00020319775772096
0.39813972668094
-0.00020958683343954
0.3983544989826
-0.00021477228253793
0.39857632841924
-0.00022182941783916
0.39880260235395
-0.00022627391645941
-0.00023481221298465
0.39903741458539
0.37294729183681
-9.7831834332276e-06
0.3729615826498
-2.9407510293204e-05
0.37298548973698
-4.9034722346904e-05
0.37301889287704
-6.8401493082314e-05
0.37306162710468
-8.7418357336139e-05
0.37311352737802
-0.0001060841803012
0.37317445042584
-0.0001244466203371
0.37324427602306
-0.00014255814667661
0.37332289222209
-0.00016044005255372
0.37341018679995
-0.00017809369667549
0.37350603330019
-0.00019548994674671
0.37361029732927
-0.00021261161251877
0.37372282405809
-0.00022941601084357
0.37384346233017
-0.00024591014141357
0.37397203901778
-0.00026204909062967
0.3741084054085
-0.00027788338221484
0.37425236533886
-0.00029331737534722
0.37440376173397
-0.00030843371752537
0.37456231706611
-0.00032298984918119
0.37472784251435
-0.00033717202536086
0.37489992793152
-0.00035053200136018
0.3750784345609
-0.00036362788438606
0.37526283683466
-0.00037567005498026
0.37545327458264
-0.00038801626060508
0.3756490689255
-0.00039899207204144
0.3758509506958
-0.00041146857538219
0.37605775551229
-0.00042157707101447
0.37627128971531
-0.00043536359330429
0.37648903905815
-0.00044402323292088
-0.00046077024485057
0.37671499711701
0.35201559468382
-1.4480297971138e-05
0.35202967437687
-4.3487156350605e-05
0.35205311953332
-7.247983170106e-05
0.35208583376473
-0.00010111567793301
0.35212768801941
-0.00012927256643416
0.35217854791047
-0.00015694402681183
0.35223828814113
-0.00018418680765572
0.35230679489236
-0.00021106485567282
0.35238395611728
-0.00023760123649342
0.35246965845913
-0.00026379599867328
0.35256377647065
-0.00028960791968839
0.35266618032085
-0.00031501542524652
0.35277672246171
-0.00033995811547495
0.35289526106358
-0.00036444870809546
0.35302163229276
-0.00038842028579484
0.35315569664497
-0.00041194770130294
0.35329726470963
-0.00043488540793201
0.35344618539974
-0.00045735437628918
0.35360218234259
-0.00047898676155553
0.35376506793106
-0.00050005758390459
0.35393442404678
-0.00051988808785609
0.35411010843213
-0.00053931224087291
0.35429157361197
-0.00055713520648268
0.35447895653133
-0.00057539915181557
0.35467153365274
-0.00059156916570112
0.35487004903966
-0.00060998393457713
0.35507324593705
-0.00062477394095247
0.35528299465418
-0.0006451122832881
0.35549657146437
-0.00065760001709046
-0.00068235485553949
0.35571815610198
0.33225870076087
-1.9137060203592e-05
0.33227263196158
-5.741831587243e-05
0.33229580334598
-9.565117473489e-05
0.33232813300627
-0.0001334452972428
0.33236952560018
-0.00017066512019069
0.33241988120028
-0.00020729958762457
0.33247909616067
-0.00024340172981724
0.33254706382719
-0.00027903248492039
0.33262367041134
-0.00031420778449556
0.33270879919562
-0.00034892474780641
0.33280232411936
-0.00038313280943597
0.33290411955144
-0.00041681082430183
0.33301404575294
-0.00044988428510537
0.33313197156815
-0.00048237449233317
0.33325774359926
-0.00051419228699971
0.3333912327504
-0.00054543682332326
0.33353225611681
-0.00057590874616294
0.333680668305
-0.0006057665369285
0.33383619112259
-0.00063450955238783
0.33399863643132
-0.00066250286632338
0.33416757184241
-0.00068882347328112
0.33434285023834
-0.00071459061141307
0.33452389151731
-0.00073817646054952
0.33471083286924
-0.00076234047898628
0.33490288745346
-0.00078362372551408
0.33510083012787
-0.00080792658459625
0.33530327765509
-0.0008272214440379
0.33551222384477
-0.00085405844910065
0.33572467080892
-0.00087004695839508
-0.00090284330788614
0.335945159285
0.31361069565419
-2.3775299694885e-05
0.31362454153305
-7.1264157829396e-05
0.31364754801422
-0.0001186576189701
0.31367965475231
-0.00016555199884493
0.31372080567067
-0.00021181600291241
0.31377093941407
-0.00025743329625984
0.31382997660538
-0.00030243888741396
0.31389781898988
-0.00034687483667071
0.31397435141798
-0.00039074018097162
0.31405945416673
-0.00043402746590681
0.31415300154871
-0.00047668016193125
0.31425487411686
-0.00051868336390485
0.31436494288084
-0.00055995302166152
0.31448309114796
-0.00060052273288384
0.31460918026849
-0.00064028138198152
0.31474309627926
-0.00067935280926653
0.31488466725572
-0.00071747969868025
0.31503375770048
-0.00075485695828464
0.31519009006166
-0.00079084189087228
0.31535347752267
-0.00082589030500338
0.31552347171336
-0.00085881764217731
0.31569992061336
-0.00089103948977819
0.31588220524
-0.00092046106593574
0.3160704657442
-0.00095060096193282
0.31626383988842
-0.00097699784871332
0.31646314682338
-0.0010072334983889
0.31666684902079
-0.0010309236204083
0.31687710005097
-0.0010643094583103
0.31709055300922
-0.0010834998964663
-0.0011244936355475
0.31731220335814
0.29600932789488
-2.8401302481134e-05
0.29602310431427
-8.5040543130197e-05
0.29604596966437
-0.00014152293500813
0.29607788882136
-0.00019747112219412
0.29611885028234
-0.00025277743103076
0.29616883606564
-0.00030741904746549
0.29622779439027
-0.00036139718091739
0.29629563747528
-0.00041471789139142
0.29637225042407
-0.00046735310051379
0.29645751237721
-0.00051928939066462
0.29655130066014
-0.00057046841755388
0.29665350550788
-0.00062088818518316
0.29676401308959
-0.00067046057794873
0.29688272616345
-0.00071923578210322
0.29700952639084
-0.00076708158570461
0.2971443205621
-0.00081414695750054
0.29728695351812
-0.00086011263253245
0.29743730495906
-0.00090520837754585
0.29759510287916
-0.0009486397899904
0.29776016598012
-0.00099095338530969
0.29793203283063
-0.0010306844725722
0.29811054983974
-0.0010695564789392
0.29829505888705
-0.0011049700937028
0.29848570768562
-0.0011412497409599
0.29868155217961
-0.0011728423234313
0.29888346639567
-0.0012091476950577
0.29908973700986
-0.0012371942153786
0.29930270547326
-0.0012772779025909
0.29951861895675
-0.0012994133616182
-0.0013488688832829
0.29974299422392
0.27939583890236
-3.300565608348e-05
0.27940951666417
-9.871827446958e-05
0.27943219168345
-0.00016419792389982
0.27946385640748
-0.00022913581625704
0.27950454765017
-0.00029346864450624
0.27955429463009
-0.00035716599888036
0.27961307626181
-0.00042017878505138
0.27968081760509
-0.00048245920785056
0.27975740623369
-0.00054394170327139
0.27984272272668
-0.00060460585861332
0.27993665084918
-0.00066439651602564
0.28003909477417
-0.00072333208691395
0.28014996112734
-0.00078132690883724
0.28026917800925
-0.0008384526424299
0.28039665419137
-0.00089455774714158
0.28053232413803
-0.00094981688406029
0.28067605712357
-0.001003845598744
0.28082775526109
-0.0010569064961675
0.2809871598379
-0.0011080443485355
0.28115410189949
-0.0011578954288933
0.28132811379788
-0.0012046963534298
0.28150904663045
-0.0012504892940749
0.28169620771513
-0.0012921311612738
0.28188975897357
-0.001334800982237
0.28208867386371
-0.0013717571966077
0.28229389203792
-0.0014143658521136
0.28250351183255
-0.0014468139929795
0.28272008698548
-0.0014938530384979
0.28293941917631
-0.0015187455360657
-0.0015770593922694
0.28316760970283
0.26371477093579
-3.7567115614894e-05
0.26372828629143
-0.00011223360228574
0.2637506653073
-0.00018657691204423
0.26378192974071
-0.00026040022228732
0.26382216717043
-0.00033370604750304
0.26387145663133
-0.00040645543364856
0.26392981022402
-0.00047853235239872
0.26399716824101
-0.00054981720013647
0.26407342341269
-0.00062019685110606
0.26415846094731
-0.00068964337006492
0.26425217512531
-0.00075811067175187
0.26435448886361
-0.00082564580360291
0.26446533511737
-0.0008921731418786
0.26458467373314
-0.00095779123808472
0.26471244808795
-0.0010223320826646
0.26484862793271
-0.0010859967100595
0.26499311574244
-0.0011483333904435
0.26514584440849
-0.0012096351445636
0.26530657814441
-0.0012687780674371
0.26547516906139
-0.001326486329097
0.26565115316171
-0.0013806804374719
0.26583439503325
-0.0014337311494425
0.26602417611113
-0.0014819122233616
0.26622068179804
-0.0015313066533348
0.26642280777777
-0.0015738831608122
0.26663157117192
-0.0016231292306222
0.26684487682771
-0.0016601196333346
0.26706551215341
-0.0017144883488625
0.26728880590411
-0.0017420392720887
-0.0018097445842021
0.26752149111179
0.24891378153745
-4.2055939709768e-05
0.24892704572051
-0.00012549776059636
0.24894898234339
-0.00020851351027796
0.24897964356388
-0.00029106141842207
0.24901916893395
-0.00037323139380236
0.2490676887341
-0.00045497521053102
0.24912525005853
-0.00053609365424291
0.2491918106665
-0.00061637778607059
0.24926727130601
-0.00069565746933152
0.24935152522698
-0.00077389727031774
0.24944448145672
-0.00085106688158231
0.24954608645081
-0.00092725077833432
0.24965630530949
-0.0010023919819945
0.24977513590365
-0.0010766218141825
0.24990256374621
-0.0011497599079254
0.25003860158065
-0.0012220345276179
0.25018319432391
-0.0012929261174998
0.25033631463291
-0.0013627554376721
0.2504977605753
-0.0014302239945146
0.25066741548647
-0.001496141225138
0.25084483132808
-0.001558096264422
0.25102989719493
-0.0016187970016968
0.25122188111267
-0.0016738961268644
0.25142100326464
-0.0017304287910253
0.25162609146672
-0.0017789713488948
0.25183825259047
-0.0018352903402489
0.2520552011151
-0.0018770681440755
0.25227997502994
-0.00193926224989
0.25250741867045
-0.0019694828994078
-0.0020472545730416
0.25274492867352
0.23494346855524
-4.6436913789423e-05
0.23495637663873
-0.00013840582165196
0.23497769863673
-0.00022983548591359
0.23500751748155
-0.0003208802411054
0.23504602463072
-0.00041173852131907
0.23509340176015
-0.0005023523186807
0.23514973188359
-0.00059242375698975
0.23521499201566
-0.00068163789785762
0.23528909360914
-0.00076975904316954
0.23537194121227
-0.00085674485426625
0.23546346257692
-0.00094258822772073
0.23556363206381
-0.0010274202471675
0.2356724522278
-0.0011112121286289
0.23578996466285
-0.0011941342322865
0.23591620404787
-0.0012759992766784
0.23605123338165
-0.0013570638454839
0.23619504908502
-0.0014367418055783
0.23634767256353
-0.0015153789011591
0.23650894718113
-0.0015914985976461
0.23667879837202
-0.0016659924017363
0.23685680800843
-0.0017361058870065
0.23704290209802
-0.0018048910775482
0.23723635088694
-0.0018673449024333
0.23743742213577
-0.0019315000265097
0.23764489173065
-0.0019864409307711
0.23785996707559
-0.0020503656721272
0.23808018748734
-0.0020972885430831
0.23830884608256
-0.0021679208325248
0.23854031483971
-0.0022009516446202
-0.0022896180577406
0.23878267833729
0.22175720502645
-5.0672131280127e-05
0.22176964423226
-0.00015084500732667
0.22179016749352
-0.00025035872708718
0.22181888799667
-0.00034960072432974
0.22185604764956
-0.0004488981546873
0.22190187829101
-0.00054818294090608
0.22195649878117
-0.00064704422840149
0.22201990656723
-0.00074504566548422
0.22209202608437
-0.00084187854241826
0.22217277599735
-0.0009374947496967
0.22226210617678
-0.0010319183901879
0.22236002247088
-0.0011253365246591
0.22246656925579
-0.0012177588975174
0.22258183648624
-0.0013094014470555
0.22270591396447
-0.0014000767398168
0.22283892116982
-0.0014900710360157
0.22298091422117
-0.0015787348426752
0.22313197156785
-0.0016664362337962
0.22329199306056
-0.0017515200768167
0.22346095699261
-0.0018349563203964
0.22363848989321
-0.0019136387746508
0.22382456726808
-0.0019909684395314
0.22401848005484
-0.0020612576766846
0.22422055473709
-0.0021335746962568
0.22442954057051
-0.002195426752035
0.22464674627976
-0.0022675713691936
0.22486958763165
-0.0023201298831416
0.22510158157376
-0.0023999147629775
0.22533669380523
-0.0024360638650771
-0.0025365697164132
0.22558364547581
0.20931098332177
-5.4723485795149e-05
0.20932284038262
-0.00016270204981037
0.20934238140955
-0.00026989973565333
0.20936974821369
-0.00037696751022111
0.2094052302355
-0.00048438015855746
0.20944910688528
-0.00059205957296004
0.20950153177706
-0.00069946910284228
0.20956252324372
-0.00080603711502981
0.20963202036538
-0.00091137564740759
0.20970995804262
-0.0010154324105194
0.20979631076115
-0.0011182710927908
0.20989111830957
-0.0012201440574218
0.20999446990779
-0.0013211104805813
0.21010650702898
-0.0014214385533486
0.21022737899401
-0.001520948690472
0.21035726645692
-0.0016199584847711
0.21049629201465
-0.0017177603867504
0.21064459820591
-0.0018147424115859
0.2108021517564
-0.0019090736142971
0.21096899375877
-0.0020017983099021
0.21114481071818
-0.0020894557216187
0.21132963893716
-0.0021757966461464
0.21152281227437
-0.0022544310019249
0.21172471970434
-0.0023354821142851
0.21193412445832
-0.002404831494449
0.21215239058284
-0.0024858374821737
0.21237695802586
-0.0025446973150134
0.21261119650919
-0.002634153235377
0.2128497636718
-0.0026746310174172
-0.0027875691335499
0.21310076310003
0.19756326831256
-5.8555252594001e-05
0.19757443589651
-0.00017386961691407
0.19759282282886
-0.000288286651131
0.19761859630132
-0.00040274096586045
0.19765208908513
-0.0005178729258116
0.19769362435424
-0.00063359482565661
0.19774338833718
-0.0007492330696811
0.19780141985439
-0.00086406861630001
0.19786767349448
-0.00097762927192978
0.19794210163335
-0.0010898605339971
0.19802470476898
-0.0012008742134369
0.19811555773424
-0.0013109970078922
0.19821479599723
-0.0014203487292167
0.19832261392659
-0.0015292564685408
0.19843922283368
-0.0016375575838455
0.19856486730391
-0.0017456029414565
0.19869974130317
-0.0018526343729128
0.19884405666973
-0.001959057765191
0.19899785602811
-0.0020628729601629
0.19916125159386
-0.0021651938632483
0.19933400544388
-0.0022622095596347
0.19951622409393
-0.0023580152842852
0.19970731227039
-0.0024455191668501
0.19990771928926
-0.0025358891216667
0.20011629128456
-0.0026134034786359
0.20033437166971
-0.0027039178562634
0.20055965838234
-0.0027699840169763
0.20079509798177
-0.002869592824388
0.20103610344047
-0.0029156364663504
-0.0030416768270753
0.20129021114456
0.18647485800115
-6.2135869075209e-05
0.18648524227893
-0.00018425387895973
0.18650232411718
-0.00030536847357221
0.18652629249884
-0.00042670933172977
0.18655751849729
-0.00054909890868224
0.18659636430465
-0.00067244061753402
0.18664304577175
-0.00079591452156411
0.18669762096271
-0.00091864379215175
0.18676005995308
-0.0010400682475128
0.18683033281412
-0.0011601333803839
0.1869084661999
-0.0012790075849107
0.18699456961834
-0.0013971004121671
0.18708882444022
-0.0015146035372998
0.1871914773764
-0.0016319093910741
0.18730280205222
-0.0017488822463985
0.18742310751801
-0.0018659083941178
0.18755266172068
-0.0019821885628467
0.18769174868505
-0.0020981447169543
0.1878404938838
-0.0022116181467082
0.18799908663617
-0.0023237866035385
0.18816737871843
-0.0024305016302084
0.18834555366705
-0.0025361902213119
0.18853311462002
-0.0026330801086155
0.18873056586982
-0.0027333403603383
0.18893689753993
-0.0028197351379853
0.1891533932201
-0.0029204135257628
0.18937806157629
-0.0029946523628874
0.1896135875807
-0.0031051188187862
0.18985564867175
-0.003157697548035
-0.0032980452108805
0.19011201706572
0.17600875151976
-6.5438614985988e-05
0.17601827713751
-0.00019377948176103
0.1760339304339
-0.00032102175493119
0.17605591923914
-0.00044869812192022
0.17608464726514
-0.0005778269198241
0.17612050995398
-0.00070830329159408
0.17616374879835
-0.00083915335139909
0.1762144391979
-0.0009693341772854
0.17627256610161
-0.0010981951370957
0.17633811670663
-0.0012256839713842
0.17641114273245
-0.001352033597035
0.17649178648683
-0.0014777441529634
0.17658027306042
-0.0016030900976244
0.17667689895342
-0.0017285352709165
0.17678199815701
-0.0018539814371652
0.17689594235912
-0.001979852583505
0.1770190735398
-0.0021053197311694
0.17715174823509
-0.0022308193999986
0.17729417904239
-0.002354048942133
0.17744663591642
-0.0024762434658264
0.17760907169677
-0.0025929373992015
0.17778175176558
-0.0027088702788787
0.17796430215771
-0.0028156304898934
0.17815727909204
-0.0029263172839211
0.178359855768
-0.0030223118035772
0.17857328259127
-0.0031338403387593
0.17879579087585
-0.0032171606375843
0.1790301039534
-0.0033394318867135
0.17927187943571
-0.0033994730213142
-0.0035553466955565
0.17952918093023
0.16613002642392
-6.8443045567111e-05
0.16613863730995
-0.00020239035334656
0.16615276980476
-0.00033515423519665
0.16617264721356
-0.00046857551616919
0.16619869976161
-0.00060387945352406
0.16623134991965
-0.00074095343539627
0.16627086033506
-0.00087866375285236
0.16631732111664
-0.0010157949450487
0.16637073047152
-0.0011516044784845
0.16643109120323
-0.001286044689742
0.16649847807213
-0.0014194204528957
0.16657306310691
-0.0015523291748162
0.16665511120185
-0.0016851381799434
0.1667449642244
-0.0018183882809304
0.1668430122919
-0.0019520294924178
0.16694968557807
-0.0020865258575261
0.16706539743301
-0.0022210315742681
0.16719057456721
-0.0023559965224775
0.1673255179816
-0.0024889923451536
0.16747057909965
-0.0026213045726496
0.16762581972776
-0.0027481780164689
0.16779159106453
-0.0028746416049736
0.16796765722345
-0.0029916966385314
0.1681546387668
-0.0031132988171417
0.16835189146465
-0.0032195644916602
0.16856070388879
-0.0033426527532631
0.16877945893027
-0.0034359156697881
0.16901101819268
-0.0035709911400775
0.16925106382528
-0.0036395186453759
-0.0038121257079725
0.16950784284708
0.15680572107835
-7.1135420874386e-05
0.15681338112146
-0.0002100503822882
0.1568259333551
-0.00034770645459137
0.15684361288999
-0.00048625503690015
0.15686687008021
-0.00062713662985603
0.15689614786701
-0.00077023120851323
0.15693172516438
-0.00091424103693167
0.15697370381295
-0.001057773580576
0.15702209318783
-0.0011999938407366
0.15707690941871
-0.0013408609082262
0.15713824691715
-0.0014807579392995
0.15720630318498
-0.0016203854307725
0.15728137767809
-0.0017602126614661
0.15736385172198
-0.0019008623133389
0.15745416517485
-0.0020423429340704
0.15755280055065
-0.0021851612221883
0.15766023716729
-0.0023284681800424
0.1577769669786
-0.002472726323047
0.15790337751585
-0.0026154028720013
0.15803989931552
-0.0027578263620819
0.15818670737879
-0.0028949860699012
0.15834424144495
-0.0030321756615063
0.15851241024496
-0.0031598654293133
0.15869192029786
-0.0032928088610246
0.15888229174599
-0.0034099359311385
0.15908492323781
-0.0035452842365918
0.15929829404536
-0.003649286469152
0.15952553638592
-0.0037982334726253
0.15976218524923
-0.003876167501037
-0.004066696715035
0.16001675626488
0.14800472419309
-7.3508670959227e-05
0.14801141711934
-0.00021674329433528
0.14802236248859
-0.00035865180966858
0.14803780341586
-0.00050169595023492
0.14805820369197
-0.00064753689251022
0.14808401997227
-0.0007960474757771
0.14811554240236
-0.00094576345457331
0.14815288148275
-0.0010951126489935
0.14819605537991
-0.001243167726504
0.1482450909201
-0.0013898964374252
0.14830009812525
-0.0015357651339317
0.1483612947866
-0.001681582081845
0.14842900798849
-0.0018279258534093
0.14850365153352
-0.0019755058485461
0.14858570671232
-0.0021243981032929
0.14867570069052
-0.0022751551908948
0.14877417059374
-0.002426938074022
0.14888166674402
-0.0025802224642203
0.14899865802399
-0.002732394143175
0.14912564885036
-0.0028848171798659
0.14926292757635
-0.0030322647877073
0.14941102211917
-0.0031802701964068
0.14956998603398
-0.0033188293366472
0.14974063597881
-0.0034634587986386
0.14992262905809
-0.0035919290035872
0.15011755409953
-0.0037402092713749
0.15032388001776
-0.0038556123809901
0.15054520438982
-0.0040195578383577
0.15077662502364
-0.0041075881286676
-0.0043173010514146
0.15102722936725
0.13969767055238
-7.55619498363e-05
0.13970339889988
-0.00022247162684672
0.13971274200174
-0.00036799489666267
0.13972594722496
-0.00051490115913441
0.13974348510103
-0.00066507475507131
0.13976581923393
-0.00081838159598545
0.13979324602439
-0.00097319023324883
0.1398258815584
-0.0011277481720414
0.13986375018078
-0.0012810363387754
0.13990688645762
-0.0014330327048003
0.13995541154503
-0.0015842902125006
0.14000955803116
-0.0017357285595109
0.14006967308214
-0.0018880408963149
0.14013619509539
-0.002042027853897
0.14020963683011
-0.0021978398303629
0.14029056149258
-0.0023560798458092
0.14037955302719
-0.0025159296013038
0.1404772117726
-0.0026778812024431
0.14058407894411
-0.0028392613078237
0.14070072604491
-0.003001464274047
0.14082755045785
-0.0031590891944621
0.1409651648454
-0.0033178845781112
0.14111375965285
-0.0034674241387489
0.14127428460092
-0.0036239837416885
0.14144649586076
-0.0037641402588453
0.14163226718843
-0.0039259805946749
0.14182999953217
-0.0040533447205774
0.14204377337762
-0.0042333316796047
0.14226835229003
-0.0043321670367227
-0.00456211866375
0.14251316990789
0.13185684216934
-7.7299373836021e-05
0.13186162468623
-0.00022725412609713
0.13186939840304
-0.00037576859585272
0.13188041056161
-0.0005259133009896
0.13189513130376
-0.00067979548180167
0.13191402494387
-0.00083727522201422
0.1319373900622
-0.00099655533889482
0.13196534573341
-0.0011557038318128
0.13199791993942
-0.0013136105345401
0.13203515151587
-0.0014702642719466
0.13207716782658
-0.0016263065147144
0.13212420994803
-0.0017827706730168
0.13217663731146
-0.0019404682522613
0.13223490426561
-0.0021002948008121
0.13229954490162
-0.002262480459393
0.13237114850352
-0.0024276834408679
0.13245033418594
-0.0025951152771211
0.13253774259851
-0.0027652896086031
0.13263397513154
-0.0029354938347899
0.13273966297448
-0.0031071521112503
0.13285530244249
-0.0032747286572488
0.13298158749888
-0.0034441696297411
0.1331188331413
-0.003604669776995
0.1332681237213
-0.0037732743179948
0.1334292887607
-0.0039253052950757
0.13360450386158
-0.0041011956927217
0.13379220322927
-0.0042410440856601
0.13399685135854
-0.0044379798061586
0.13421324873701
-0.0045485644120811
-0.0047991052813576
0.13445023535904
0.12445607548846
-7.8728502393683e-05
0.12445994329464
-0.00023112190832934
0.12446620511469
-0.00038203039140847
0.12447510169335
-0.00053480985621834
0.12448709458711
-0.0006917883539141
0.12450264311582
-0.00085282373097188
0.12452204527855
-0.0010159574838081
0.12454542149786
-0.0011790800350076
0.12457280152682
-0.0013409905489391
0.12460422501518
-0.0015016877469523
0.1246398210912
-0.0016619025784005
0.12467983236585
-0.0018227819360213
0.12472462329868
-0.00198525917402
0.12477465346701
-0.0021503249584233
0.12483046922904
-0.0023182962110247
0.12489267173173
-0.0024898859333795
0.1249619060092
-0.0026643495447359
0.12503883744007
-0.0028422210299199
0.12512412074813
-0.0030207771337711
0.12521843200753
-0.0032014633620786
0.12532236258042
-0.0033786592222463
0.12543667054031
-0.0035584775824425
0.12556180772639
-0.0037298069566988
0.12569895078679
-0.0039104173727476
0.12584803242583
-0.0040743869292355
0.12601141026005
-0.0042645735226301
0.12618754324019
-0.0044171770619159
0.12638143776169
-0.0046318743237786
0.12658823398667
-0.0047553606327811
-0.0050275012168376
0.12681662992788
0.11747067830721
-7.9863000805908e-05
0.11747367366162
-0.000234117227209
0.11747850221421
-0.00038685890715863
0.11748538902555
-0.00054169663172747
0.11749477995827
-0.00070117925287588
0.11750712461255
-0.00086516835382888
0.11752271822208
-0.0010315510642659
0.1175416815136
-0.0011980432995153
0.11756404432098
-0.0013633533311141
0.11758984319857
-0.0015274866007581
0.11761920496908
-0.0016912643262875
0.11765236686098
-0.0018559438061501
0.11768969328698
-0.0020225855789192
0.11773163840355
-0.0021922700543935
0.11777875622109
-0.0023654140084138
0.11783164096777
-0.0025427706603041
0.11789096168481
-0.0027236702425094
0.11795737771199
-0.0029086370383812
0.1180316073622
-0.003095006765975
0.11811432553586
-0.0032841815185722
0.11820625389666
-0.00347058756691
0.11830813534426
-0.003660359015056
0.11842064352976
-0.003842315128408
0.11854491910402
-0.0040346929344086
0.11868117203976
-0.0042106398535288
0.11883183430269
-0.0044152357751935
0.11899501911788
-0.0045803618675979
0.11917661906138
-0.0048134742582614
0.1193703595513
-0.0049491011136685
-0.0052496951370163
0.1195925534821
0.11087735327602
-8.0731334367423e-05
0.11087954534854
-0.00023630924822341
0.11088304788903
-0.00039036139420582
0.11088805383947
-0.0005467025297425
0.11089499329369
-0.00070811865694411
0.11090430752268
-0.00087448253525078
0.11091628973337
-0.0010435332299333
0.1109310606259
-0.0012128141492358
0.11094864839588
-0.0013809410601721
0.11096908258993
-0.0015479207553701
0.11099248243904
-0.0017146641371798
0.11101907217859
-0.0018825335083977
0.11104920978696
-0.0020527231507929
0.11108333420393
-0.0022263944354856
0.11112200394832
-0.0024040837175904
0.11116578989191
-0.0025865565692987
0.11121539160256
-0.0027732719193405
0.11127142822465
-0.0029646736275095
0.11133471548468
-0.0031582939941884
0.11140584341826
-0.0033553094216647
0.11148576478618
-0.0035505089060054
0.11157500309255
-0.0037495972943481
0.11167470580244
-0.0039420178131454
0.11178551431652
-0.004145501425118
0.11190853445636
-0.0043336599718355
0.11204562195796
-0.0045523232570335
0.11219565500569
-0.0047303948972817
0.11236466728217
-0.0049824865180112
0.11254169208347
-0.0051261258990857
-0.0054664023939669
0.11275839935784
0.1046540977122
-8.1363018079397e-05
0.10465560086265
-0.00023781233013892
0.10465792283474
-0.00039268329649493
0.10466121040345
-0.00054999002992435
0.1046658651748
-0.00071277336210581
0.10467232438473
-0.00088094168157816
0.10468089385816
-0.0010521026421928
0.1046917011889
-0.0012236214209009
0.10470477978071
-0.0013940195946347
0.10472015957885
-0.001563300497549
0.10473794221195
-0.0017324467154242
0.10475833106726
-0.001902922309808
0.10478166659179
-0.0020760586222387
0.1048083632032
-0.0022530909946282
0.10483896699949
-0.0024346874624145
0.10487401165074
-0.0026216011700158
0.10491420999044
-0.0028134702095496
0.10496012799548
-0.0030105915844212
0.10501269247812
-0.0032108584303245
0.10507237107599
-0.0034149879751688
0.10514044042823
-0.0036185782162859
0.10521700089674
-0.0038261577236907
0.10530402657168
-0.0040290434516549
0.10540083447142
-0.0042423092911519
0.10551073164384
-0.004443557113196
0.10563212988774
-0.0046737214726851
0.10576983905122
-0.0048681040352254
0.10592478978177
-0.005137437225499
0.10609538920748
-0.0052967253036032
-0.0056659237919202
0.10629491062847
0.098780069115362
-8.1713791865152e-05
0.09878098118891
-0.00023872432380011
0.098782219765045
-0.00039392179219184
0.098783991858399
-0.00055176204423804
0.098786598986475
-0.00071538041326789
0.098790473622417
-0.00088481624279921
0.098795945953131
-0.001057574900176
0.098803164303928
-0.001230839700553
0.098812160808364
-0.0014030160291961
0.098822944639012
-0.0015740842592624
0.098835593077579
-0.0017450950858822
0.098850289522639
-0.0019176186874343
0.098867353104699
-0.0020931221376044
0.098887177680936
-0.0022729155048766
0.098910290384614
-0.0024578001010078
0.098937187418233
-0.0026484981395281
0.098968560594335
-0.0028448433229119
0.099004913086709
-0.003046944015727
0.099047233350159
-0.0032531786350732
0.099095892340076
-0.0034636469092961
0.099152496053734
-0.0036751818778047
0.099216777849225
-0.0038904394709316
0.099291711456032
-0.0041039770142673
0.099375010472563
-0.0043256082672902
0.099473081813084
-0.0045416284171523
0.099578320352833
-0.0047789599798208
0.099705547787272
-0.0049953314410495
0.099836667141611
-0.0052685565544726
0.10000209940099
-0.0054621575394687
0.10021368147447
-0.0058775058406045
0.39437733856359
0.0046600760401763
0.38987765573975
0.0044996828416873
0.38554317145706
0.0043344843002368
0.38137858951686
0.0041645819577856
0.37738849734059
0.0039900921938691
0.37357735620515
0.0038111411532798
0.36994948201193
0.0036278742111959
0.36650902654952
0.0034404554807
0.36325995807734
0.0032490684906457
0.36020604254905
0.0030539155471213
0.35735082723621
0.0028552153318586
0.3546976288961
0.0026531983595244
0.35224952618629
0.0024481027294051
0.35000935636368
0.0022401698426125
0.34797971552482
0.0020296408590548
0.34616296208979
0.0018167534556428
0.34456122176342
0.0016017403471618
0.34317639361069
0.0013848281739611
0.34201015539711
0.0011662382349814
0.34106396865582
0.00094618676314971
0.34033908090106
0.00072488777679198
0.33983652541508
0.00050255550851328
0.33955710716496
0.00027941827283739
0.33950127200283
5.583518537877e-05
0.33966984148166
-0.00016856945537002
0.34006287610273
-0.00039303459706497
0.3406803610844
-0.00061748495744471
0.34152211697043
-0.00084175586126788
0.34258776159563
-0.0010656446002397
0.343876704942
-0.0012889433209149
0.34538814543807