/*--------------------------------*- C++ -*----------------------------------*\
| =========                 |                                                 |
| \\      /  F ield         | OpenFOAM: The Open Source CFD Toolbox           |
|  \\    /   O peration     | Version:  2112                                  |
|   \\  /    A nd           | Website:  www.openfoam.com                      |
|    \\/     M anipulation  |                                                 |
\*---------------------------------------------------------------------------*/
FoamFile
{
    version     2.0;
    format      ascii;
    arch        "LSB;label=32;scalar=64";
    class       volScalarField;
    location    "11";
    object      p;
}
// * * * * * * * * * * * * * * * * * * * * * * * * * * * * * * * * * * * * * //

dimensions      [0 2 -2 0 0 0 0];

internalField   nonuniform List<scalar> 
22000
(
0.015665366356477
0.015643976522934
0.01559980137902
0.015531738203823
0.015439289580557
0.015322485588233
0.015181614738735
0.01501698937005
0.014828860359466
0.014617437579164
0.014382928317815
0.01412556523108
0.013845615735471
0.01354338744427
0.013219217977666
0.012873479885895
0.012506565846185
0.012118909905189
0.011710958616017
0.011283217659634
0.010836184040492
0.010370450374408
0.0098865488488989
0.0093851852489521
0.0088668848457828
0.0083325265664329
0.0077825403964185
0.0072181011289453
0.0066393356848063
0.0060479500674035
0.016066209357567
0.016043597782579
0.015997822228686
0.015927895596491
0.015833304549584
0.01571401388205
0.015570255097671
0.015402309162466
0.015210412925413
0.014994768976623
0.014755576840352
0.014493060377178
0.01420747614777
0.013899122593005
0.013568326365171
0.013215453235675
0.012840884910797
0.01244505312267
0.012028392075804
0.011591413048994
0.011134595613264
0.010658552599029
0.010163782705952
0.0096510430272187
0.0091207850698894
0.0085739995054794
0.0080109500662108
0.0074330118890841
0.0068399454741824
0.006233760582263
0.01680218228482
0.016778650125295
0.01673110018355
0.016658597006162
0.016560660944077
0.016437256059631
0.016288593273688
0.016114930960904
0.015916486412855
0.015693445255623
0.015445989564443
0.015174326400102
0.014878692906429
0.014559370327804
0.014216664364609
0.013850926721538
0.013462517466093
0.013051861776675
0.012619369834256
0.012165561046929
0.011690882037409
0.011195982841493
0.010681301681986
0.010147696482367
0.0095954862472984
0.0090258943666425
0.0084388890660934
0.0078363007105384
0.0072172297259849
0.0065844270338856
0.017827534911339
0.017802979302178
0.017753357317984
0.017677700869796
0.017575520938911
0.017446779627815
0.017291679876691
0.017110464483557
0.016903327749238
0.016670428510224
0.016411919083526
0.01612797804093
0.015818810935085
0.015484670706206
0.015125828722642
0.0147426115665
0.014335342529219
0.013904431246811
0.013450246548252
0.012973312722243
0.012474021542179
0.011953070434998
0.011410802804076
0.010848215243709
0.010265425184537
0.0096639807986005
0.0090434026937696
0.0084061482399341
0.0077503171559435
0.0070796754649444
0.019102814217515
0.01907709164465
0.019025098455449
0.018945818506713
0.018838737918451
0.018703806161554
0.018541210768179
0.018351171699606
0.018133850488078
0.017889366685793
0.01761782775367
0.017319367916328
0.016994143703449
0.016642362893662
0.016264243201789
0.015860068911936
0.015430104964367
0.014974729800015
0.014494246497541
0.013989173707024
0.013459818384683
0.012906926822684
0.0123307038947
0.011732312595478
0.011111589597898
0.010470492440841
0.0098079410418359
0.0091272024638232
0.0084250737753282
0.0077066765546077
0.020593434710779
0.020566472578669
0.020511956794573
0.020428818509831
0.020316512585349
0.02017496631708
0.02000433959267
0.019804816035668
0.019576509382716
0.019319483312654
0.019033781662435
0.018719474464161
0.018376647092276
0.018005439914928
0.017605991732429
0.017178521023007
0.016723206007057
0.016240371111103
0.015730221549956
0.015193251785457
0.014629645644848
0.01404019117178
0.013424901937229
0.012785128584216
0.012120341659146
0.011432987428021
0.010721228920365
0.0099893216184453
0.009232452334142
0.0084574143176405
0.022268295361256
0.022240105831724
0.022183086574568
0.022096112814671
0.021978602466053
0.021830451140289
0.021651777524522
0.02144271292054
0.021203305224653
0.020933542518079
0.020633382955653
0.020302808850179
0.019941808007167
0.019550426205705
0.019128692473068
0.018676729767274
0.018194594378527
0.017682526495144
0.017140593316028
0.016569238155328
0.015968474084664
0.015339115020979
0.014680921082254
0.01399544091128
0.013281681724057
0.012542647290899
0.011775574620977
0.010985868456426
0.01016678314869
0.0093270673678136
0.024098678353453
0.024069357464355
0.024010022025267
0.023919490454105
0.023797138802544
0.023642820948777
0.023456599610604
0.023238536138431
0.022988592627179
0.022706659628686
0.022392584950932
0.022046236541707
0.021667474521834
0.021256218541624
0.020812351936249
0.020335866634913
0.019826655217118
0.019284836050504
0.018710289909173
0.018103372856174
0.017463869743153
0.016792593190798
0.01608897533893
0.015354762163972
0.014588388539497
0.013793469084217
0.01296613356045
0.012113078538371
0.011225291752057
0.010313725438671
0.026057559131784
0.026027282698901
0.02596598017353
0.02587241434655
0.02574591504345
0.025586283985211
0.025393512302731
0.025167572837195
0.024908320972406
0.024615526641069
0.024288901100715
0.023928169198314
0.023533030609135
0.023103243966239
0.022638507006353
0.02213864022859
0.021603325105786
0.021032513843279
0.020425844850548
0.019783541922966
0.019105094202397
0.018391274662177
0.017641101527291
0.016856501097167
0.016035213198915
0.015181500634027
0.014290195598932
0.013369406667709
0.012407515703061
0.011417875148488
0.028119237422279
0.028088255406352
0.028025485024047
0.027929636766436
0.027799990544686
0.027636285467131
0.027438425483233
0.027206276515144
0.026939566583958
0.026637922017086
0.026300891174019
0.025928026374905
0.025518833004443
0.025072871870787
0.02458961286894
0.024068661095854
0.023509435601177
0.022911672433604
0.02227470587951
0.021598574240923
0.020882395876867
0.020126853804732
0.019330455999162
0.018495275703424
0.017618224536274
0.016704218670771
0.0157465925637
0.014754952528943
0.013714731158316
0.012641843178256
0.030259200065672
0.030227827483644
0.030164221131479
0.030067043914867
0.029935522922289
0.029769324986713
0.029568252446906
0.029332047335511
0.029060291291197
0.028752445514261
0.028407870572347
0.02802591771268
0.027605865047184
0.027147038476894
0.026648637749123
0.02611000641315
0.025530248431335
0.024908828710791
0.024244712822925
0.02353769167721
0.022786433873927
0.0219914689761
0.021150698351344
0.020266284909619
0.019334187326213
0.018359938378283
0.017335182501874
0.016271021247272
0.015149565785536
0.013989346105029
0.032454141046546
0.032422747125339
0.032359047396185
0.032261662233012
0.032129763648926
0.031962938421186
0.03176087557757
0.031523179147322
0.03124926843834
0.030938420836185
0.030589787352847
0.030202492084473
0.029775555996981
0.029308034404057
0.02879881749191
0.028246940185062
0.027651141387664
0.027010554776345
0.026323715504615
0.025590092927724
0.024807832078686
0.023977219263151
0.023095470058691
0.02216472111966
0.02117993329084
0.020147066370527
0.019056131160008
0.017919410873245
0.016715589798696
0.01546559162092
0.034682080478778
0.034651074557409
0.034588108957861
0.034491764650681
0.034361156628777
0.03419578660737
0.033995222593639
0.03375892068054
0.033486126251008
0.033175918483597
0.032827221834435
0.032438911486459
0.03200972646772
0.031538419500397
0.031023536990637
0.030463759935722
0.029857417563293
0.029203249714176
0.028499306485028
0.027744648836153
0.026936840844097
0.026075794186349
0.025158015618862
0.024185371553582
0.023151942187446
0.022063650228041
0.020909188627973
0.019701624461697
0.018415849178925
0.017075500915499
0.036922546490828
0.036892359847646
0.03683100507983
0.036737028984225
0.036609489282107
0.036447800108899
0.036251404219281
0.036019604138129
0.035751464590046
0.035445857891107
0.035101470871623
0.034716914896671
0.034290628270872
0.03382103666259
0.033306313581265
0.032744748836703
0.032134220696783
0.031473019814113
0.030758657887052
0.029989705143741
0.029163082178851
0.028278209142568
0.027330802670349
0.026322332277453
0.025245836910706
0.024107128499163
0.022893393444761
0.021618087943135
0.020253756471147
0.018824584758716
0.03915676273546
0.039127835190178
0.03906898014618
0.0389787238939
0.038856072340211
0.038700352389049
0.038510880823374
0.038286805702127
0.038027009284051
0.037730153976923
0.03739468444245
0.037018941372519
0.036601051510896
0.036139098306654
0.03563086104869
0.03507421155895
0.034466541385375
0.033805650113151
0.033088455276377
0.032312976598932
0.03147540725288
0.03057459973662
0.029605357113828
0.028568666113979
0.027456347642516
0.02627401500214
0.025007114327342
0.023669415029608
0.022230616024705
0.020715612075827
0.041367786050736
0.041340549734226
0.041285069071789
0.041199867262953
0.041083907579015
0.040936433647936
0.040756639021547
0.040543520855866
0.040295783570778
0.040011884518247
0.039690029244893
0.039328288415087
0.038924475043615
0.038476325233172
0.037981213482774
0.037436577937243
0.036839299047058
0.036186654303304
0.03547492293798
0.034701522647231
0.033861847209752
0.032954106244547
0.031972079579236
0.030916177851599
0.029776845814298
0.02855938701853
0.027247277330346
0.025854427823365
0.024347293979489
0.022751027485901
0.043540629491068
0.043515496200071
0.043464225071644
0.043385355899854
0.043277821783654
0.04314079021891
0.042973338171041
0.042774320256314
0.042542273259026
0.042275460910473
0.041971861163576
0.041629285121293
0.041245239478979
0.040817117620043
0.040341890024629
0.039816558214065
0.039237480577749
0.03860139577042
0.037903914324975
0.037141815175464
0.036309632953008
0.035404870532514
0.034420182432412
0.033355308067602
0.032199162532158
0.030956629836581
0.02960899349829
0.028170149914543
0.026602845152513
0.024931900666644
0.045662338965847
0.045639688451649
0.045593399920202
0.045522050632723
0.045424557526317
0.045300022448044
0.045147416865999
0.044965465890776
0.044752554274225
0.044506769614977
0.044225881031194
0.043907458740633
0.043548721280689
0.043146735397648
0.042698080035986
0.042199329289387
0.041646323059471
0.041035259930295
0.040361068148588
0.039619869197683
0.038805296833435
0.037914103296372
0.036937729244571
0.035875158153981
0.034713608095041
0.033457418871766
0.032085436839535
0.030611477196213
0.028994092709803
0.027257293334587
0.047722013450989
0.04770218594808
0.047661572703383
0.047598810112784
0.047512814877444
0.047402636380883
0.047267156037594
0.047104987170893
0.046914383149302
0.046693277772793
0.046439256540115
0.04614967432609
0.045821489378355
0.04545146750329
0.045035823133639
0.044570724093715
0.044051511679213
0.043473856141802
0.042832009738135
0.042121433076605
0.041334840271892
0.04046821119149
0.03951171581055
0.038463535399735
0.037309036916913
0.036051895694343
0.034668109538407
0.03317132182729
0.031515343151361
0.029723150982056
0.049710763581879
0.049694059059184
0.04965972757385
0.049606480691398
0.049533251155696
0.04943905567189
0.049322707028608
0.049182726911603
0.049017261138347
0.04882411600012
0.048600725609455
0.048344260422133
0.048051455460457
0.047718806732767
0.047342205568542
0.046917442880011
0.046439405343081
0.04590325416557
0.045302603830162
0.044632254000411
0.043884018091842
0.0430530777556
0.042128319984533
0.041107098436464
0.039972893265876
0.038728674484433
0.037347281240259
0.035841705729124
0.03415992462298
0.032323675629147
0.051621608151806
0.051608287609356
0.051580764904006
0.051537829032398
0.051478439056294
0.051401602728558
0.051306093596724
0.05119036761915
0.051052490196992
0.050890166950039
0.05070071813909
0.050481164957385
0.050228066804571
0.049937683968287
0.049605643515601
0.04922738752913
0.048797422140176
0.048310410243596
0.047759423640021
0.047138576363163
0.046438897533803
0.045654678814781
0.0447736368543
0.043792124515679
0.042691859957046
0.041475118179332
0.040111743804183
0.038614360045446
0.036922493891312
0.035055741659931
0.053449351116757
0.053439598828947
0.053419298254629
0.05338732484231
0.053342675334434
0.053284357396976
0.053211115177466
0.053121362726486
0.053013125678966
0.052884045432678
0.052731371046913
0.052552010249576
0.052342398384169
0.05209859197337
0.051816032015557
0.05148983741648
0.051114249299059
0.050683413523763
0.050190036401082
0.049627433376772
0.048986151379156
0.048259309914854
0.047433931447005
0.04650479414134
0.045452335445562
0.04427740519212
0.042947410890492
0.041476156072247
0.03979431706392
0.037916858209161
0.055190539713002
0.055184368877674
0.05517143344953
0.055150749809561
0.055121426144962
0.055082494668371
0.055032644254081
0.054970220943769
0.054893222765444
0.054799266578872
0.054685584356851
0.054549013819008
0.054385921398796
0.054192187913545
0.05396314263738
0.053693586743379
0.053377631088699
0.053008852219153
0.05257985407146
0.052082908625619
0.051508623215358
0.050848243372824
0.050089299798583
0.049223382719926
0.048231959060754
0.04711074211728
0.045827522865941
0.044391984028262
0.042734443370594
0.040875116023978
0.056843562013476
0.05684075381022
0.056834924881479
0.056825323346332
0.056811207549658
0.05679168680937
0.056765472778298
0.05673088181622
0.05668586042227
0.056627981058664
0.056554478426233
0.056462114358417
0.056347200421743
0.056205483348421
0.05603224593588
0.055821987891005
0.055568745987896
0.055265447283294
0.054904751605476
0.054477611015405
0.053975249909916
0.053386050669386
0.052699781072227
0.051901897797954
0.05098017404964
0.049916939714048
0.048692991411332
0.047286689377715
0.045648387188568
0.043770074644866
0.05840914783028
0.058409431793965
0.058410276559567
0.058411602250777
0.058412491395661
0.058411850832759
0.058408514845622
0.058401019135963
0.058387557497288
0.058365874760059
0.058333186931101
0.058286071952621
0.05822069067402
0.058132645455444
0.058017222807949
0.057868797521541
0.05768145177772
0.0574476235615
0.057160010276254
0.0568083554062
0.056384606812403
0.055874381578859
0.055270193243215
0.054550530562046
0.053712425032949
0.05271998139502
0.051583274113205
0.050228216144286
0.048665850168705
0.046655415770761
0.0054806895616554
0.0049402777061729
0.0043907189820845
0.0038330497406991
0.0032681828661289
0.0026968524591129
0.00211967752108
0.0015372802234297
0.00095033343588579
0.00035954190727157
-0.00023437912164023
-0.00083070911136429
-0.0014287249035598
-0.0020277065303465
-0.0026269397069556
-0.0032257149396528
-0.0038233283493907
-0.0044190839951508
-0.0050122962164863
-0.0056022915396761
-0.0061884097073946
-0.0067700021366781
-0.0073464285309759
-0.0079170464230486
-0.0084812090689245
-0.0090383563163529
-0.0095882293612255
-0.010130373208626
-0.010664244624313
-0.011189335094214
-0.01170520948323
-0.012211495814658
-0.012707870964284
-0.01319404630462
-0.013669766501955
-0.014134803440865
-0.01458896962221
-0.015032103746454
-0.015464094035585
-0.015884840947922
-0.01629431032029
-0.016692451906887
-0.017079318646623
-0.017454883700285
-0.017819311380871
-0.018172550259997
-0.018514941830105
-0.018846331676982
-0.019167400538498
-0.019477870304385
0.0056549723576101
0.0051063996005072
0.0045476588428425
0.0039806581729575
0.003406706834469
0.0028264572275866
0.0022402496438406
0.0016485180725421
0.0010518759760114
0.00045101966693057
-0.00015333439557289
-0.00076045897673624
-0.0013696206359802
-0.0019800872189352
-0.0025911275266886
-0.0032020066887683
-0.0038119852408639
-0.0044203232458624
-0.0050262848600683
-0.0056291422132925
-0.0062281788253695
-0.0068226966552678
-0.0074120273104041
-0.0079955547553509
-0.008572732948818
-0.0091429919717968
-0.0097054687502549
-0.010259566603833
-0.010804830626308
-0.011340831030051
-0.011867142009293
-0.012383353830413
-0.012889089890345
-0.013384009174871
-0.013867817918258
-0.014340257334802
-0.014801120528526
-0.015250223808497
-0.0156874480157
-0.016112675882948
-0.016525883549944
-0.016926999888097
-0.017316112691496
-0.017693154910788
-0.018058365889601
-0.018411591069219
-0.018753307985616
-0.019083062801554
-0.019401679075911
-0.01970781805875
0.005981943761593
0.0054115847010513
0.0048286569576907
0.0042370948766236
0.0036392673441984
0.0030358415181834
0.0024267142937948
0.0018120280600241
0.0011923534596704
0.00056843852020567
-5.894422377741e-05
-0.00068901734708711
-0.0013210054977547
-0.001954146792931
-0.0025876853932495
-0.003220856837568
-0.0038528851213533
-0.0044829906216215
-0.0051103985210197
-0.0057343439877676
-0.0063540754016676
-0.006968856428611
-0.0075779664685689
-0.008180693170178
-0.0087763191508854
-0.0093641358211745
-0.0099435707410563
-0.010514043900962
-0.011075005282666
-0.01162594560092
-0.01216639357937
-0.01269591034675
-0.013214100081655
-0.013720606140255
-0.014215126660259
-0.014697394030281
-0.015167204721561
-0.015624372295362
-0.016068796244291
-0.016500358421011
-0.016919076798063
-0.017324870966892
-0.017717909607687
-0.018098082853603
-0.018465785889345
-0.018820723257022
-0.019163666373359
-0.019493704857365
-0.01981206518357
-0.020115607883387
0.0064419096524993
0.0058370762233901
0.0052164293575729
0.0045871352639853
0.0039531303786166
0.0033150337259603
0.0026720291767631
0.0020238010474239
0.0013708499936436
0.00071399567203783
5.4079614330272e-05
-0.00060807047635491
-0.0012716463328908
-0.0019358721562168
-0.0025999859771543
-0.0032632105583669
-0.0039247465975
-0.0045837854190899
-0.0052395211058957
-0.0058911556589924
-0.0065379003119102
-0.0071789773992417
-0.0078136239864717
-0.0084410986967038
-0.0090606924790912
-0.0096717342535626
-0.010273555859316
-0.010865535528927
-0.011447092350278
-0.012017681766759
-0.012576802519076
-0.013123993733055
-0.013658846052545
-0.01418098920332
-0.014690113755263
-0.015185940672503
-0.015668268350688
-0.016136902423393
-0.016591760598893
-0.017032715158606
-0.017459828028784
-0.017872995434982
-0.018272477919213
-0.018658095268445
-0.019030426782154
-0.019388965018772
-0.019734826716762
-0.020066416623329
-0.020385365715216
-0.020685809076298
0.0070235914522343
0.0063731533241903
0.0057027114189218
0.0050238884344191
0.0043426742392939
0.0036595457257914
0.0029726849879266
0.0022811484319031
0.001585349626619
0.00088621403925521
0.00018467541853702
-0.00051838063829115
-0.001222113754382
-0.0019257404656401
-0.0026285000413944
-0.0033296067449567
-0.0040282393313319
-0.0047235604071799
-0.0054147342846514
-0.0061009335495744
-0.006781340109739
-0.0074551472634397
-0.0081215642244576
-0.0087798203635757
-0.0094291686343718
-0.01006888808785
-0.010698290441182
-0.011316718999929
-0.011923556786806
-0.0125182267456
-0.013100200384565
-0.013668991227409
-0.014224169230531
-0.014765342766241
-0.015292188936566
-0.015804411425012
-0.016301806130811
-0.016784164814039
-0.017251420094654
-0.017703428708296
-0.018140295576174
-0.018561885556005
-0.018968553706648
-0.019360034915534
-0.019737103948618
-0.020099004734642
-0.020447235328503
-0.020779395438325
-0.021097575914541
-0.021392647809549
0.0077199744397628
0.0070135521599792
0.0062817952713015
0.0055421446505259
0.0048031644181179
0.0040650826643414
0.0033247753013454
0.0025805004810374
0.0018325796989619
0.0010820931967475
0.00033010115749836
-0.0004224398101329
-0.0011746550160652
-0.0019257555175945
-0.0026749846482031
-0.0034215488264223
-0.0041646029119415
-0.004903278624741
-0.0056367094879326
-0.00636403817998
-0.007084416061159
-0.0077970039875803
-0.0085009762723844
-0.00919552465908
-0.0098798627542568
-0.010553233180508
-0.011214915552268
-0.011864219138063
-0.012500492240245
-0.013123123063772
-0.013731551144921
-0.01432525878107
-0.014903789602465
-0.015466725260188
-0.016013723878442
-0.016544466654233
-0.017058740997064
-0.017556319455011
-0.018037142261692
-0.018501045721803
-0.018948168849538
-0.019378341772884
-0.019792002553996
-0.020188800714228
-0.020569693287351
-0.020933673903175
-0.021282613252677
-0.021613260549414
-0.021928133355694
-0.022214459879344
0.0085269880022219
0.0077546078052291
0.0069502419556286
0.0061387098575696
0.0053317059067791
0.0045290640173681
0.003726011027273
0.0029198227918402
0.0021107306961142
0.0013000311609072
0.00048895138103074
-0.00032146714637923
-0.0011303139212972
-0.0019367976675777
-0.0027401683636752
-0.0035396235430026
-0.0043342907437284
-0.0051232667736261
-0.0059056507292076
-0.0066805522511254
-0.0074470888717898
-0.0082043854685993
-0.0089515785042684
-0.0096878207852294
-0.010412286995591
-0.011124180852334
-0.011822739023592
-0.012507229060257
-0.013176958687092
-0.013831275123203
-0.014469578484974
-0.015091311782468
-0.015695982772888
-0.01628313698104
-0.016852402202435
-0.017403426978221
-0.017935976242438
-0.018449793132825
-0.018944807791586
-0.019420827893142
-0.01987800276001
-0.020316125753531
-0.020735683375836
-0.021136250320604
-0.021518913694826
-0.021882445487435
-0.022229011455006
-0.022554535619414
-0.022861811308328
-0.023134244178352
0.0094434561425978
0.0085953898582875
0.0077071333755536
0.0068127081705581
0.0059275480447875
0.0050508958273671
0.0041759317089545
0.0032987447111489
0.0024194840029419
0.0015397374536755
0.00066095033953819
-0.00021573438575443
-0.0010893708830597
-0.0019591688734425
-0.0028243855675805
-0.0036842061281738
-0.0045377242035237
-0.0053839951583085
-0.0062220784267646
-0.0070510457406327
-0.0078699758791846
-0.008677952709816
-0.0094740694915437
-0.010257433960417
-0.011027174079409
-0.01178244549556
-0.012522433914046
-0.01324635564916
-0.01395346758732
-0.014643065760534
-0.015314499237702
-0.015967159833955
-0.01660050526076
-0.017214031460233
-0.017807318377141
-0.018379967873447
-0.018931701002949
-0.019462218246928
-0.019971411944614
-0.020459052386024
-0.020925260322311
-0.021369794890518
-0.021793130293987
-0.022194792262991
-0.02257589905921
-0.022935066579831
-0.023274601060778
-0.023589724534966
-0.02388325082932
-0.024134887323749
0.010470628472592
0.0095372586745495
0.0085536563570683
0.0075651976608656
0.0065917218855506
0.0056316161250261
0.0046755573970754
0.0037182276473096
0.0027597122014207
0.0018019802251965
0.00084675305614268
-0.00010470732224292
-0.0010514202765928
-0.001992600422754
-0.0029275117346409
-0.003855320295925
-0.0047750764740003
-0.0056857849314412
-0.0065864573407479
-0.007476120550487
-0.0083538076015196
-0.0092185536987789
-0.010069400490356
-0.010905401501676
-0.011725628084239
-0.012529177595756
-0.013315173747009
-0.014082770026021
-0.014831159364573
-0.01555957297731
-0.016267293314417
-0.016953645922048
-0.017618019471055
-0.018259843680676
-0.018878627512544
-0.019473908439095
-0.020045333711361
-0.020592544899077
-0.021115357006108
-0.021613492621495
-0.022086987431168
-0.022535573979507
-0.022959626099095
-0.023358666645736
-0.023733700348479
-0.024083301137765
-0.024409677575717
-0.024707577472893
-0.024979428875479
-0.025201648496893
0.011611673688432
0.010583406083438
0.0094926811312103
0.0083988012484659
0.0073267518564487
0.0062736974024743
0.0052272652226752
0.0041804917402928
0.0031334404589551
0.0020885775611524
0.0010479708134541
1.3017742767103e-05
-0.0010152726144194
-0.0020361241428638
-0.0030488035198865
-0.0040524480957873
-0.0050460530019007
-0.0060285611803489
-0.0069989272081764
-0.0079561239467508
-0.0088991292780262
-0.0098269198689151
-0.010738475120924
-0.01163278307299
-0.012508846450658
-0.01336569177868
-0.014202366719654
-0.015017947366604
-0.015811546448479
-0.016582314388806
-0.017329447659084
-0.018052187170028
-0.018749829065331
-0.019421716612707
-0.020067257512437
-0.020685904140315
-0.021277191272725
-0.021840682102848
-0.022376062172572
-0.022882993046426
-0.023361350780576
-0.023810846660211
-0.024231636380837
-0.024623290495288
-0.024986514754639
-0.025319982755692
-0.025625516502
-0.025897724325233
-0.026138172786018
-0.026320735646246
0.012871160930538
0.011738377236304
0.010528411504462
0.0093174560135518
0.0081364225142466
0.0069808002633466
0.0058345597242042
0.0046888356821449
0.0035437224313348
0.002402322125742
0.0012671342799777
0.00013970821730332
-0.00097893080232422
-0.0020880236484964
-0.003186832729099
-0.0042744505450847
-0.0053498011496653
-0.0064117527496019
-0.0074591912355872
-0.0084910245598103
-0.0095061642374851
-0.01050351650463
-0.011481985858045
-0.012440481518357
-0.013377923261605
-0.014293251706158
-0.015185421713527
-0.016053415202522
-0.016896245456183
-0.017712962817245
-0.018502654768915
-0.019264456688062
-0.019997543437216
-0.020701148745838
-0.021374543546737
-0.022017070373303
-0.022628103544534
-0.023207104731826
-0.023753566245902
-0.024267069506155
-0.024747247700663
-0.025193786872278
-0.025606506640991
-0.025985051223449
-0.026329671027351
-0.026639173112991
-0.026914790288668
-0.027151143463032
-0.027348966409121
-0.027479996748729
0.014254952178299
0.013007474858789
0.01166560482704
0.010325839376426
0.0090254888431345
0.0077576279985299
0.0065019465243178
0.0052475002086653
0.0039945108704479
0.0027468684881853
0.0015075968195523
0.00027841440125585
-0.00093965525518126
-0.0021458794006939
-0.0033395052605177
-0.0045195603923327
-0.0056848781524505
-0.0068342365569902
-0.0079664402033935
-0.0090803192114288
-0.010174704868873
-0.011248418659041
-0.012300275080041
-0.013329088869211
-0.014333680133819
-0.015312886326533
-0.016265550520163
-0.017190541079037
-0.018086749845206
-0.018953106104878
-0.019788561894471
-0.020592122662457
-0.021362810398394
-0.022099722193868
-0.022801951871097
-0.023468702680078
-0.024099137212754
-0.024692584393246
-0.025248274725511
-0.025765670049205
-0.026244078053641
-0.026683099841518
-0.027082115363409
-0.027440765663034
-0.02775888150517
-0.028035097583841
-0.028270701490402
-0.028459380340787
-0.028605877466602
-0.028671919632273
0.015769911434117
0.014397345255319
0.012909955985986
0.011429185091938
0.0099991776224581
0.0086094320614904
0.0072345460478207
0.0058613600423741
0.0044904037494201
0.0031265397281237
0.0017733990411308
0.00043287294593381
-0.00089403486557286
-0.002206621209621
-0.0035041004317494
-0.0047854079799955
-0.0060492630745345
-0.007294335945365
-0.0085193345858233
-0.0097229965307543
-0.010904057190574
-0.012061236588736
-0.013193241834956
-0.014298775477165
-0.015376539300014
-0.016425248161099
-0.01744361204622
-0.018430364503591
-0.019384251831616
-0.020304057812457
-0.021188570854808
-0.022036639732926
-0.022847098435349
-0.023618874964274
-0.024350846073664
-0.025042033916717
-0.025691340340171
-0.02629791340573
-0.026860662701526
-0.0273788696744
-0.027851471288253
-0.028277884013128
-0.028656950129482
-0.028988202733511
-0.029270863623224
-0.029502812810447
-0.029687439460945
-0.029819550250506
-0.029904756162028
-0.029886374076569
0.017421401618036
0.015913660051937
0.014267580474932
0.012633607756001
0.011063457598661
0.0095420825472673
0.0080380797323627
0.0065358854195789
0.0050365745923384
0.0035462178504415
0.0020691359073118
0.00060737689972505
-0.00083810221425439
-0.0022666240773396
-0.0036773419262675
-0.0050690675212271
-0.0064403800792388
-0.0077898223784663
-0.0091159894005075
-0.010417508668469
-0.011693000638612
-0.012941064282667
-0.014160279335421
-0.01534921613259
-0.016506437415709
-0.017630514016255
-0.018720000287415
-0.019773471036746
-0.020789501468331
-0.021766703716172
-0.022703672906426
-0.023599070665953
-0.024451509252806
-0.025259712823126
-0.026022299218932
-0.02673806450892
-0.027405599877125
-0.02802381616079
-0.028591205572121
-0.029106827018694
-0.029569066009152
-0.02997715119954
-0.030328937775068
-0.030624674858743
-0.030860609373664
-0.031035226998749
-0.031154379187776
-0.031226449936359
-0.03124302988453
-0.031121362090627
0.01921499256667
0.017562538097853
0.015744396031589
0.013945034620012
0.012224389516001
0.010561643432152
0.0089184640462918
0.0072767809099446
0.0056385083398973
0.0040111676096312
0.0023998332272528
0.00080667766975856
-0.00076741496029811
-0.0023217778557844
-0.0038554628371567
-0.0053671167529415
-0.0068551498160412
-0.0083179572728363
-0.009754002145219
-0.011161782186775
-0.012539781615009
-0.013886455901503
-0.015200234987632
-0.01647953464105
-0.017722756216063
-0.018928302578493
-0.020094548173575
-0.021219883362083
-0.022302686397214
-0.023341367975964
-0.024334300911137
-0.025279928347837
-0.026176602981357
-0.02702281573726
-0.027816875388977
-0.028557331838419
-0.029242391588439
-0.029870751603194
-0.030440317319686
-0.030950173281145
-0.031397686153283
-0.031782503999524
-0.032100847088412
-0.032355516182601
-0.032537369621416
-0.03265157625247
-0.032697210014741
-0.032688393259127
-0.032600307076719
-0.032370290021334
0.021154973129959
0.019348712757544
0.017345349037533
0.015368875531741
0.013487822039241
0.011674113536729
0.0098816123799936
0.0080897934106573
0.006301783612224
0.0045268013775287
0.0027707172195398
0.0010357780249921
-0.00067723459236906
-0.0023676374875178
-0.0040343253551453
-0.0056757328014669
-0.0072900695419141
-0.0088755598398976
-0.010430512786026
-0.01195327162434
-0.013442158352504
-0.014895459673296
-0.016311431434954
-0.017688310780354
-0.019024313681813
-0.020317649500004
-0.021566488064684
-0.022769006930222
-0.023923360713261
-0.025027728076354
-0.026080230343108
-0.027079056831882
-0.028022266577231
-0.028908086466093
-0.029734456942734
-0.030499672410645
-0.031201471913019
-0.031838324451526
-0.032407477071256
-0.03290805268889
-0.03333625332482
-0.03369193537006
-0.03397124747339
-0.034173336037454
-0.034293640490618
-0.034334616117525
-0.034293141543751
-0.034161752133502
-0.033937943267043
-0.033588158061114
0.023244317070948
0.021275674521775
0.019074371264923
0.016909750325327
0.014858972338012
0.012884991212991
0.010933072982985
0.0089804413367705
0.0070318781996244
0.0050985363371052
0.0031870918258164
0.0012998054617423
-0.00056265380425595
-0.0023995354667713
-0.0042095108905678
-0.0059907528892691
-0.0077412418211138
-0.0094590086236561
-0.011142181034718