/*--------------------------------*- C++ -*----------------------------------*\
| =========                 |                                                 |
| \\      /  F ield         | OpenFOAM: The Open Source CFD Toolbox           |
|  \\    /   O peration     | Version:  2112                                  |
|   \\  /    A nd           | Website:  www.openfoam.com                      |
|    \\/     M anipulation  |                                                 |
\*---------------------------------------------------------------------------*/
FoamFile
{
    version     2.0;
    format      ascii;
    arch        "LSB;label=32;scalar=64";
    class       surfaceScalarField;
    location    "11";
    object      phi;
}
// * * * * * * * * * * * * * * * * * * * * * * * * * * * * * * * * * * * * * //

dimensions      [0 3 -1 0 0 0 0];

oriented        oriented;

internalField   nonuniform List<scalar> 
43645
(
0.39512361208283
-4.7390694587545e-06
0.39513779042872
-1.4178406268181e-05
0.39516151357181
-2.3723208391806e-05
0.39519481145466
-3.3297950325003e-05
0.39523765148196
-4.2840095113763e-05
0.39528997597999
-5.232456522178e-05
0.39535172108832
-6.1745174322748e-05
0.39542282046756
-7.1099443869063e-05
0.39550320141977
-8.0381015277429e-05
0.39559278554011
-8.9584181902933e-05
0.39569148252178
-9.8697041602126e-05
0.39579919335899
-0.00010771089565282
0.39591579820296
-0.00011660490079843
0.39604116858151
-0.00012537043396453
0.39617514575375
-0.00013397722612364
0.39631757407713
-0.0001424283759607
0.39646825284119
-0.00015067881526794
0.39662701214347
-0.00015875935236843
0.39679359957813
-0.00016658748355653
0.39696785382023
-0.00017425429011464
0.3971494431449
-0.00018158937172528
0.39733826417234
-0.00018882107383671
0.39753383733946
-0.00019557321278651
0.39773622020083
-0.00020238290662154
0.39794461415119
-0.00020839399509463
0.39815946428723
-0.00021485018058371
0.39837926419024
-0.0002197999472194
0.39860538843933
-0.00022612429270302
0.3988347659532
-0.00022937755642097
-0.00023618472964225
0.39907095063968
0.37294699735937
-9.1817785894977e-06
0.37296040294775
-2.7584092538069e-05
0.37298297403446
-4.6294394779321e-05
0.37301474329369
-6.5067309160054e-05
0.37305568641414
-8.3783313920006e-05
0.37310576221997
-0.00010240046775277
0.37316492595752
-0.00012090900654921
0.37323312761218
-0.00013930119123101
0.37331030574647
-0.0001575592401044
0.37339638893699
-0.00017566746092698
0.37349129218411
-0.00019360037503539
0.37359492268607
-0.00021134148191081
0.37370716919667
-0.00022885149353236
0.37382791418607
-0.00024611550359493
0.37395701138821
-0.00026307450647278
0.3740943180555
-0.0002797351197564
0.37423964649106
-0.0002960073255204
0.374392839728
-0.00031195266258768
0.3745536589434
-0.00032740677070924
0.37472195640996
-0.00034255182732913
0.3748974148404
-0.00035704787160592
0.37507994361347
-0.0003713499155825
0.37526907698342
-0.00038470665050073
0.37546488202346
-0.00039818801396034
0.37566657526644
-0.00041008730473581
0.375874608283
-0.00042288326360541
0.37608750188298
-0.00043269361324723
0.37630663430863
-0.00044525678351209
0.37652899652902
-0.00045173983954774
-0.00046535329334936
0.37675816502834
0.352015301256
-1.3585606720109e-05
0.35202853867814
-4.0821617404047e-05
0.35205071457297
-6.8470392675486e-05
0.35208185542588
-9.620826404907e-05
0.35212195415672
-0.0001238821447619
0.35217099616152
-0.00015144257039286
0.3522289629084
-0.00017887584880919
0.35229582433917
-0.00020616271507224
0.35237153040269
-0.00023326539414145
0.3524560144793
-0.00026015162573722
0.35254919361538
-0.00028677959673107
0.35265097912901
-0.00031312707888525
0.35276126743119
-0.00033913987656087
0.35287995342416
-0.00036480157530418
0.35300690418583
-0.00039002534457002
0.35314199256824
-0.00041482357676292
0.35328504285694
-0.00043905768682135
0.35343591411721
-0.00046282399399818
0.35359437663492
-0.00048586935792187
0.35376030234735
-0.00050847760823912
0.35393337690112
-0.0005301224926042
0.35411353465154
-0.0005515077326243
0.35430029483025
-0.00057146689497176
0.35449376104727
-0.00059165429652596
0.35469309908734
-0.00060942540983321
0.35489883350046
-0.00062861774187321
0.35510936433785
-0.00064322451556919
0.35532623323969
-0.00066212574975577
0.3555461527335
-0.00067165939543075
-0.00069223814027843
0.35577303751606
0.33225840626103
-1.7947993982405e-05
0.33227154132052
-5.3956768387096e-05
0.33229350905809
-9.0438222200717e-05
0.33232431759333
-0.00012701689040717
0.33236397341113
-0.00016353805196564
0.33241249352728
-0.00019996277409198
0.33246989329284
-0.00023627569973028
0.33253616855886
-0.00027243806441213
0.33261128342992
-0.00030838034619714
0.33269517651675
-0.00034404479146583
0.33278776636948
-0.00037936952599155
0.33288896863408
-0.0004143294179655
0.33299868856361
-0.00044885987825258
0.3331168362595
-0.00048294934145763
0.33324329483991
-0.00051648399310397
0.33337795641519
-0.00054948521854486
0.33352065908422
-0.00058176042050909
0.33367128172699
-0.00061344670014848
0.33382960390214
-0.00064419159496425
0.33399552233448
-0.00067439610158454
0.33416872235594
-0.00070332257394813
0.33434917085284
-0.00073195628890134
0.33453636032345
-0.00075865642418725
0.33473044451799
-0.00078573854951945
0.33493051074593
-0.00080949169576697
0.33513718998581
-0.00083529703990702
0.33534870671895
-0.00085474130663796
0.33556685535043
-0.0008802744386973
0.33578796596346
-0.00089277006376251
-0.00092081533651479
0.33601654310208
0.31361039872338
-2.2289415523194e-05
0.31362349802944
-6.7056157138343e-05
0.31364537103899
-0.00011231131456514
0.31367601067256
-0.00015765660580685
0.31371544087707
-0.00020296833650326
0.31376371552376
-0.00024823749892351
0.31382088979691
-0.0002934500487832
0.31388699079435
-0.00033853913570206
0.31396200055157
-0.0003833901748968
0.31404586534805
-0.00042790965732526
0.3141385070391
-0.0004720112840259
0.31423984791663
-0.00051567036045484
0.31434980506961
-0.00055881709388258
0.31446830797668
-0.00060145230934349
0.31459525994388
-0.00064343601904001
0.31473057731137
-0.00068480264325631
0.31487411561957
-0.00072529878419038
0.31502577879616
-0.00076510993109284
0.31518535809472
-0.0008037709465357
0.31535278149099
-0.00084181955017118
0.31552773400748
-0.00087827514181037
0.31571022405996
-0.00091444639248589
0.31589971140515
-0.00094814381993449
0.3160964148364
-0.00098244203145022
0.31629932469756
-0.0010124016074078
0.31650920848407
-0.0010451808773675
0.31672406996314
-0.0010696028367342
0.31694602044149
-0.0011022249679945
0.3171708989029
-0.0011176485744668
-0.0011538484425367
0.31740393195693
0.29600902816618
-2.6615794330037e-05
0.296022112608
-8.0140675655472e-05
0.29604392235341
-0.00013412113667735
0.29607443585146
-0.00018817017961093
0.29611369859207
-0.00024223115121169
0.29616180695934
-0.00029634593860175
0.29621886173669
-0.00035050489650381
0.29628492630142
-0.00040460376894875
0.29636000456462
-0.0004584685044343
0.29644405365779
-0.00051195881492941
0.29653700165593
-0.00056495934436582
0.29663878096412
-0.0006174497289957
0.29674932460672
-0.00066936079466059
0.29686858659461
-0.0007207143537169
0.29699649569767
-0.00077134517661149
0.29713299859294
-0.00082130559162597
0.2972779734672
-0.00087027370986807
0.29743135593577
-0.00091849245002956
0.29759295345683
-0.00096536851663048
0.29776273306335
-0.0010115992050652
0.29794038210419
-0.0010559242300523
0.2981259603241
-0.0011000246595297
0.29831889232047
-0.0011410758628112
0.29851947584192
-0.001183025599499
0.29872659078132
-0.0012195165930888
0.29894116599291
-0.0012597561356304
0.29916094846338
-0.0012893853538248
0.29938841868055
-0.0013296952316243
0.2996188417299
-0.0013480716686715
-0.0013932857313371
0.29985827897114
0.27939553692833
-3.0918267912169e-05
0.27940858293089
-9.3186746982643e-05
0.27943028891364
-0.00015582718803734
0.27946061946045
-0.00021850079408097
0.27949964464673
-0.00028125640353978
0.27954750778204
-0.00034420913836865
0.279604359976
-0.00040735715297416
0.2796703053276
-0.00047054918132974
0.27974537356464
-0.0005335368001784
0.27982953635888
-0.00059612166608872
0.27992273173998
-0.00065815478026925
0.28002490653605
-0.00071962457813644
0.28013601459103
-0.0007804689006592
0.28025604024096
-0.00084074005311925
0.28038494374747
-0.00090024873072924
0.28052270898876
-0.00095907087925829
0.28066924315579
-0.0010168079216629
0.28082452121899
-0.0010737705570861
0.2809883729574
-0.00112922029768
0.28116081331512
-0.0011840396048965
0.28134153680388
-0.001236647760081
0.28153066513414
-0.0012891530309205
0.28172758871374
-0.0013379994830487
0.28193269857571
-0.001388135502321
0.28214475679723
-0.0014315748552863
0.2823648772508
-0.0014798766303957
0.2825905256031
-0.0015150337473794
0.2828245979587
-0.0015637676285212
0.28306172463415
-0.0015851983841225
-0.0016404611899502
0.28330890004992
0.26371446784132
-3.5176718938597e-05
0.26372741705598
-0.00010613602451818
0.26374892208883
-0.00017733228358239
0.26377893465685
-0.00024851342397359
0.26381755169009
-0.00031987349724974
0.26386496649648
-0.00039162400389727
0.26392138395095
-0.00046377466488561
0.26398695246706
-0.00053611775342311
0.26406173126419
-0.00060831565144578
0.26414571042915
-0.00068010088365996
0.26423884212637
-0.00075128652819352
0.26434109234581
-0.00082187484677954
0.26445244102047
-0.00089181762264745
0.26457290884762
-0.00096120792622252
0.26470249400284
-0.0010298339301753
0.26484122481848
-0.0010978017379734
0.26498904468652
-0.0011646278312902
0.26514597631557
-0.0012307022268664
0.26531187933031
-0.0012951233519519
0.26548682632987
-0.0013589866434574
0.26567052598676
-0.0014203474550798
0.26586317359856
-0.0014818006806329
0.26606413000016
-0.001538955921949
0.26627389424024
-0.0015978997798034
0.26649110918176
-0.0016487898338618
0.26671709575976
-0.0017058632457845
0.26694902422893
-0.0017469622537826
0.26719024542768
-0.0018049888643773
0.26743471352742
-0.0018296665196329
-0.0018961784562178
0.26769043075527
0.24891347876716
-3.9362849237188e-05
0.24892624699653
-0.00011890430983086
0.24894741190457
-0.00019849724736825
0.24897691368232
-0.00027801525674142
0.24901487762252
-0.00035783749121368
0.24906154871048
-0.00043829514448449
0.24911718759053
-0.00051941359604906
0.24918198949503
-0.00060091970778787
0.2492560462586
-0.00068237246324153
0.24933937010366
-0.00076342477563392
0.24943193160622
-0.00084384807596379
0.24953372068234
-0.0009236639668075
0.24964474863454
-0.0010028456170695
0.24976507833539
-0.0010815376681246
0.24989475230799
-0.0011595079422633
0.25003385042792
-0.0012368998964033
0.25018235996029
-0.0013131374008139
0.25034035981387
-0.0013887021168711
0.25050774810679
-0.0014625116802113
0.25068466506783
-0.0015359036394045
0.25087084260687
-0.0016065250282068
0.25106656156508
-0.0016775196727969
0.25127116160299
-0.0017435559932464
0.25148526444143
-0.0018120026517763
0.251707399148
-0.0018709245736225
0.25193911210059
-0.0019375762318991
0.25217727514207
-0.0019851253286047
0.25242572231841
-0.0020534360739491
0.25267771222662
-0.0020816564598742
-0.0021607730851494
0.25294230682094
0.23494316771973
-4.344305702796e-05
0.23495565337161
-0.00013139001233317
0.23497631115079
-0.00021915507701299
0.23500507125143
-0.00030677540727322
0.23504208799972
-0.0003948542883639
0.23508765826505
-0.00048386545776509
0.2351420989151
-0.00057385429280526
0.23520565320235
-0.00066447404075031
0.23527844788482
-0.00075516719002667
0.23536052051301
-0.00084549744708716
0.2354518640937
-0.00093519169845314
0.23555249678163
-0.0010242966954711
0.23566246618661
-0.0011128150612948
0.23578188236111
-0.0012009538808921
0.23591083833989
-0.0012884639579168
0.23604947166679
-0.0013755332593266
0.23619782152963
-0.0014614872984397
0.23635603040885
-0.0015469110302262
0.23652404490794
-0.0016305262123969
0.23670208138653
-0.0017139401506732
0.23688990663427
-0.0017943503077905
0.23708789711852
-0.0018755101887071
0.23729538487543
-0.0019510437811762
0.23751312567387
-0.0020297434812611
0.23773955208595
-0.0020973510162699
0.23797644596368
-0.0021744701403601
0.2382203987165
-0.0022290781117816
0.23847573718735
-0.0023087745748961
0.23873501787808
-0.002340937179443
-0.0024341580122198
0.23900840277397
0.22175690778234
-4.7381092250033e-05
0.22176899990168
-0.00014348217690613
0.22178896921842
-0.00023912443885757
0.22181673746602
-0.00033454369955327
0.2218524876963
-0.00043060456245355
0.22189656730215
-0.00052794510672991
0.22194934819851
-0.00062663523123906
0.22201112140436
-0.00072624728789605
0.22208204989788
-0.00082609572368047
0.22216219889088
-0.00092564647938362
0.22225158728448
-0.0010245801301119
0.22235026486585
-0.0011229743140501
0.22245831986531
-0.0012208700967018
0.22257591307672
-0.0013185471274508
0.22270319380952
-0.0014157447246481
0.22284036140479
-0.0015127008878425
0.22298751578762
-0.0016086417134145
0.22314486733957
-0.0017042626138053
0.2233124242479
-0.001798083151388
0.22349048209202
-0.0018919980251274
0.22367886115918
-0.0019827294044941
0.2238780338006
-0.002074682859519
0.22408735099055
-0.0021603609998962
0.22430769535277
-0.0022500878722541
0.22453744760217
-0.0023271032939543
0.22477859923814
-0.0024156218047188
0.22502754204536
-0.0024780209469433
0.22528906234596
-0.0025702949031232
0.22555508186572
-0.0026069567256174
-0.0027158538079164
0.22583677763279
0.20931069123062
-5.1140411626791e-05
0.20932227679229
-0.00015506777953469
0.20934137436863
-0.00025822205611099
0.20936789852138
-0.00036106789293956
0.20940205962459
-0.00046476570559954
0.20944425265703
-0.00057013817861403
0.2094949017459
-0.00067728435872031
0.20955434393434
-0.00078568951439497
0.20962277851842
-0.00089453034486072
0.2097002996556
-0.0010031676530653
0.20978695469649
-0.0011112352064585
0.20988282729071
-0.001218846943089
0.20998804951768
-0.0013260923574154
0.21010283478701
-0.0014333324299097
0.2102273934932
-0.0015403034629136
0.21036198847319
-0.0016472958993574
0.210506789753
-0.0017534430237613
0.21066207529615
-0.0018595481870404
0.21082793320949
-0.0019639410939348
0.21100473025475
-0.002068795099269
0.2111923750387
-0.0021703742165587
0.21139141166364
-0.0022737195123846
0.21160127281566
-0.0023702221791811
0.21182290762934
-0.0024717227131471
0.21205477722946
-0.0025589729206998
0.21229887636963
-0.0026597209715155
0.2125517981094
-0.0027309427127825
0.21281811785709
-0.0028366146764518
0.21309014652108
-0.0028789854140132
-0.003005220429619
0.21337951311634
0.19756298265493
-5.468657160173e-05
0.19757395259688
-0.00016603775863952
0.19759200398231
-0.0002762734787251
0.19761704473549
-0.00038610868313776
0.19764930997968
-0.00049703098627164
0.19768923790552
-0.00061006614060347
0.1977373004028
-0.00072534689148742
0.19779387740402
-0.00084226655071965
0.19785920320687
-0.00095985618204628
0.19793340118014
-0.0010773656602523
0.19801654828603
-0.001194382345412
0.19810876328158
-0.0013110619712348
0.19821022331766
-0.0014275524252101
0.19832119540263
-0.0015443045461352
0.19844195268652
-0.0016610607771624
0.19857282356663
-0.0017781668093943
0.19871405213908
-0.0018946716252809
0.19886598753866
-0.0020114836153252
0.19902880625382
-0.0021267598369916
0.19920294765697
-0.0022429365300308
0.19938842992149
-0.0023558565079588
0.19958585521274
-0.0024711448303167
0.19979479355756
-0.0025791605500313
0.2000162104263
-0.0026931396078169
0.20024875600154
-0.0027915185212659
0.20049434541336
-0.0029053104085874
0.20074991993716
-0.0029865172612393
0.20101966588128
-0.0031063606447354
0.20129677517947
-0.0031560947351695
-0.0033008500271165
0.20159240475206
0.18647458030031
-5.7989534059397e-05
0.18648483634783
-0.00017629384038202
0.18650168543879
-0.00029312260401431
0.1865250285613
-0.00040945183992672
0.1865551223911
-0.00052712484993483
0.18659244305206
-0.00064738683521027
0.18663750448847
-0.00077040836102509
0.1866907250729
-0.00089548716803366
0.18675237139108
-0.0010215025324808
0.18682259510586
-0.0011475894070009
0.18690150245964
-0.0012732897304756
0.18698924734785
-0.0013988068903953
0.18708605117946
-0.0015243562870485
0.18719223425953
-0.0016504876561051
0.18730813118503
-0.0017769577318093
0.1874341374841
-0.001904173137284
0.1875705702476
-0.002031104416841
0.18771785648006
-0.0021587698755331
0.18787625784699
-0.0022851612309217
0.18804630263976
-0.0024129813495099
0.18822810912254
-0.0025376630167326
0.18842236864706
-0.0026654043805942
0.18862877242161
-0.0027855643496567
0.18884835217533
-0.0029127193864165
0.1890799124658
-0.0030230788359943
0.18932540945795
-0.0031508074248148
0.18958195214138
-0.0032430599681177
0.18985376549875
-0.0033781740250046
0.19013429173436
-0.0034366209925117
-0.0036012307384004
0.19043467242204
0.17600848300648
-6.1023810369521e-05
0.17601794452181
-0.00018575538761056
0.17603346093284
-0.00030863904712261
0.1760549272739
-0.00043091821307456
0.1760826180844
-0.00055481569219304
0.17611704104519
-0.00068180982759999
0.17615874541613
-0.0008121127631186
0.17620818255307
-0.00094492433593712
0.17626564774495
-0.0010789677547832
0.17633131881321
-0.0012132605054757
0.1764053297207
-0.001347300667589
0.17648786790898
-0.0014813451080816
0.17657919667048
-0.0016156850773477
0.17667968709286
-0.0017509781070664
0.17678973228498
-0.0018870029518772
0.17690979328298
-0.0020242341629892
0.17704025840275
-0.0021615695636534
0.17718163374833
-0.002300145247887
0.17733426532727
-0.002437792835934
0.17749877703377
-0.0025774930817926
0.17767538355599
-0.0027142695640059
0.17786488679882
-0.002854907648178
0.17806708119971
-0.0029877587745918
0.17828312039799
-0.0031287586084639
0.17851191319855
-0.0032518716596405
0.1787555599721
-0.003394454221202
0.17901124378045
-0.0034987437986441
0.17928340560095
-0.0036503358671176
0.17956545307734
-0.0037186684894311
-0.0039047277615491
0.17986895007811
0.16612976807975
-6.3769938240917e-05
0.16613837338966
-0.00019436072771045
0.1661524566255
-0.00032272231335702
0.16617190811002
-0.00045036972798739
0.16619701638998
-0.00057992400221632
0.16622831373743
-0.00071310720493352
0.16626637710929
-0.00085017616438937
0.16631168431497
-0.00099023157079946
0.16636455467859
-0.0011318381470301
0.16642518912827
-0.0012738949835408
0.1664937469241
-0.0014158584912731
0.16657044599489
-0.0015580442065158
0.16665558769383
-0.0017008268034216
0.16674958927439
-0.0018449797145941
0.16685289771348
-0.0019903114174112
0.16696603507854
-0.0021373715543098
0.16708945762436
-0.002284992135153
0.16722374748585
-0.0024344351348023
0.16736933436525
-0.0025833797400946
0.16752693612721
-0.0027350948681779
0.1676968674501
-0.0028842009105737
0.16788004153315
-0.0030380817544872
0.16807636486468
-0.0031840821286187
0.16828711863776
-0.0033395124036195
0.16851132874278
-0.0034760817859958
0.16875125285101
-0.0036343783503901
0.1690041778335
-0.0037516688014161
0.16927476042025
-0.0039209184735951
0.16955644558779
-0.0040003536757603
-0.0042093910652099
0.16986110887079
0.15680547367007
-6.6214945207981e-05
0.1568131805128
-0.00020206759940668
0.15682576211592
-0.0003353039455796
0.15684310499571
-0.0004677126367422
0.15686550752906
-0.00060232656404801
0.15689351925699
-0.00074111896098996
0.15692773683424
-0.00088439376911631
0.15696865751467
-0.0010311522782696
0.15701661944283
-0.0011798001015377
0.15707184259331
-0.0013291181599682
0.15713450796359
-0.0014785238868847
0.15720485983949
-0.0016283961075074
0.15728323261251
-0.0017791996010122
0.15737008333284
-0.0019318304593596
0.15746590643057
-0.0020861345391167
0.15757127831476
-0.0022427434623406
0.15768671760517
-0.0024004314488835
0.15781287679795
-0.0025605943506516
0.1579502654978
-0.0027207684623739
0.15809969123238
-0.0028845206247774
0.15826156839957
-0.0030460780989819
0.15843691983922
-0.0032134332148139
0.1586257716159
-0.0033729339250907
0.15882953247602
-0.0035432732829431
0.1590473635434
-0.0036939128717163
0.15928167337725
-0.0038686882020686
0.15952989031441
-0.0039998857556974
0.15979687493156
-0.0041879031073545
0.16007619720764
-0.0042796759677683
-0.0045130992628078
0.16037990538742
0.14800448833822
-6.8352379710286e-05
0.14801127394262
-0.00020885323228958
0.14802231766017
-0.00034634769155113
0.14803750297206
-0.00048289797658389
0.14805713377215
-0.00062195739122124
0.14808176929901
-0.00076575451414475
0.14811201781044
-0.00091464230579577
0.14814838880875
-0.0010675233009609
0.14819123385185
-0.001222645167996
0.14824078735904
-0.0013786716897977
0.14829724792917
-0.0015349844788499
0.14836088072683
-0.00169202892657
0.14843204720039
-0.0018503660954293
0.14851123645805
-0.0020110197376804
0.14859898285368
-0.0021738809549989
0.14869590825578
-0.0023396688845448
0.14880258642031
-0.0025071096330627
0.14891973177222
-0.0026777397219403
0.14904792733021
-0.0028489640391
0.14918806288833
-0.0030246562011391
0.14934064774451
-0.0031986629725231
0.14950680998172
-0.0033795954686532
0.14968669771422
-0.0035528216731846
0.14988184955217
-0.0037384251356538
0.15009157810482
-0.0039036414380937
0.1503184430552
-0.0040955531654649
0.15056002547913
-0.0042414681918868
0.15082137498555
-0.0044492526255795
0.151096226177
-0.0045545271707238
-0.0048136391396108
0.15139676604038
0.13969744661874
-7.0181765421755e-05
0.13970330660373
-0.00021471324704499
0.13971280709242
-0.00035584820978165
0.13972582913606
-0.00049592004867774
0.1397426775693
-0.00063880585134791
0.13976391369276
-0.00078699066295552
0.13979014946918
-0.00094087810581405
0.13982189954428
-0.0010992733981331
0.1398595237646
-0.0012602694088098
0.13990326611108
-0.0014224140555928
0.1399533385693
-0.0015850569552367
0.14001002060099
-0.001748710975742
0.14007369436704
-0.0019140398782911
0.14014487110647
-0.0020821964936426
0.14022411778184
-0.0022531276464717
0.14031209022636
-0.0024276413450225
0.14040941053707
-0.0026044299592843
0.14051684252742
-0.0027851717274965
0.14063503641928
-0.0029671579454978
0.14076495122899
-0.0031545710247617
0.14090718564336
-0.0033408973998106
0.14106296088226
-0.0035353707194972
0.14123254363773
-0.0037224044393287
0.14141759745957
-0.0039234789670198
0.14161759776661
-0.0041036417533708
0.14183528682363
-0.0043132422297096
0.14206840125427
-0.0044745826288596
0.1423222344418
-0.0047030858190575
0.14259051063066
-0.0048228033656939
-0.0051086274511149
0.14288549893407
0.13185663024972
-7.1707315860457e-05
0.13186157622785
-0.00021965926041018
0.13186955638068
-0.00036382839785945
0.13188044928764
-0.00050681298910194
0.13189455558238
-0.00065291217699178
0.13191243113689
-0.00080486624576728
0.13193468439876
-0.00096313139326023
0.1319618285215
-0.0011264175440619
0.13199422698785
-0.0012926678960614
0.13203212835393
-0.0014603154408187
0.13207575418622
-0.0016286828051465
0.13212539074907
-0.0017983475552203
0.13218143516846
-0.0019700843134631
0.13224440852029
-0.0021451698608458
0.13231490439507
-0.0023236235361674
0.13239359645701
-0.0025063334216404
0.13248115239446
-0.0026919859109649
0.13257836421605
-0.0028823835629086
0.13268595102049
-0.0030747447629994
0.13280491327015
-0.0032735332866523
0.13293594738743
-0.0034719315281002
0.13308033723609
-0.003679760577867
0.13323847429674
-0.0038805415080688
0.13341212422239
-0.0040971288991799
0.13360088944147
-0.00429240697724
0.13380775718826
-0.0045201099798406
0.13403057373017
-0.0046973991729236
0.13427515588722
-0.0049476679778487
0.13453508018281
-0.0050827276635721
-0.005395634809391
0.13482208753662
0.12445587577188
-7.2936788204889e-05
0.12445993130563
-0.00022371484276906
0.12446643825938
-0.0003703354013915
0.12447527148888
-0.00051564626631276
0.12448672110508
-0.00066436183738406
0.12450132977202
-0.00081947495314766
0.12451969566652
-0.00098149732442614
0.12454232516208
-0.0011490470729854
0.12456958215667
-0.0013199249210481
0.12460171531495
-0.0014924486271907
0.12463895196828
-0.001665919484669
0.12468157665101
-0.0018409722628682
0.12472999590217
-0.002018503588522
0.12478472653814
-0.0021999005201254
0.12484638605403
-0.0023852830747914
0.12491564515982
-0.0025755925497927
0.12499322192818
-0.0027695627010911
0.12507990119422
-0.0029690628500999
0.12517648913913
-0.0031713327280465
0.12528396877621
-0.0033810129426885
0.12540317687751
-0.0035911396467139
0.12553538307738
-0.0038119667932222
0.12568116649505
-0.0040263249390464
0.12584233755742
-0.0042582999726303
0.12601860408881
-0.0044686735173449
0.12621318086524
-0.004714686762847
0.12642379672034
-0.0049080150328627
0.12665712136742
-0.005180992629025
0.12690683713356
-0.0053324434343957
-0.0056735307856022
0.12718473310233
0.11747049140642
-7.3884474069098e-05
0.11747369288627
-0.00022691639565111
0.11747879536504
-0.00037543795599973
0.11748566655713
-0.00052251753227136
0.11749458241808
-0.00067327776812028
0.1175060657561
-0.00083095835634816
0.1175206963918
-0.00099612802075344
0.11753896845095
-0.0011673191887907
0.11756124458142
-0.0013422011047384
0.11758777152515
-0.0015189756214707
0.11761877927705
-0.0016969272849973
0.11765454291851
-0.0018767359512593
0.11769547058276
-0.0020594312985251
0.11774205994994
-0.0022464899322475
0.11779494942752
-0.0024381725965703
0.11785478604795
-0.0026354292137369
0.11792234950166
-0.0028371261974769
0.11799837368801
-0.0030450870780551
0.11808378914244
-0.0032567482226603
0.11817946537864
-0.0034766892172128
0.11828647607732
-0.0036981503814259
0.11840589637558
-0.0039313871247528
0.11853869551222
-0.0041591241059678
0.11868648263015
-0.0044060871176071
0.11884937030553
-0.004631561216575
0.11903061656428
-0.0048959330422497
0.11922750308085
-0.005104901567442
0.11944764954907
-0.0054011391136529
0.11968313936061
-0.0055679332624254
-0.0059448345078165
0.11995444306235
0.11087717638094
-7.4576043338245e-05
0.11087958729968
-0.00022932742084264
0.11088338818186
-0.00037923894868609
0.11088842572826
-0.00052755518724451
0.11089496016241
-0.00067981230640031
0.1109034921487
-0.00083949044173323
0.11091458071668
-0.0010072166829379
0.11092870462389
-0.0011814431860252
0.11094622354701
-0.0013597201143814
0.11096738212401
-0.0015401342823201
0.11099240899088
-0.00172195423357
0.11102156406724
-0.0019058911078036
0.11105524697247
-0.0020931142826232
0.11109392729254
-0.002285170330215
0.11113825708444
-0.0024825024652898
0.11118884720014
-0.0026860194052929
0.11124654099366
-0.0028948200654698
0.11131198583234
-0.0031105319896658
0.11138627046
-0.0033310329209703
0.11147004691387
-0.0035604657390371
0.11156476801775
-0.0037928715496955
0.11167102428028
-0.0040376434477578
0.11179059405622
-0.0042786939379334
0.11192416106848
-0.0045396541815672
0.11207327437821
-0.0047806745734208
0.1122400982025
-0.0050627569092159
0.11242325986673
-0.0052880632701537
0.11262994754989
-0.0056078268324309
0.11284737497275
-0.0057853607198408
-0.0062092011520736
0.11311174157683
0.10465392379217
-7.5033987316712e-05
0.10465563771253
-0.00023104148286588
0.1046582721955
-0.00038187357598533
0.10466165064027
-0.00053093377389421
0.10466599712728
-0.00068415893079601
0.10467177230851
-0.00084526575540399
0.10467951489846
-0.0010149594007495
0.10468970054266
-0.0011916289542335
0.10470269348699
-0.0013727131796795
0.10471875466695
-0.0015561955808833
0.10473811242416
-0.0017413121075985
0.10476099738392
-0.001928776182897
0.10478777665023
-0.0021198936630469
0.10481888565499
-0.0023162794478348
0.10485497639241
-0.0025185933143602
0.10489663577596
-0.0027276788989506
0.10494475088235
-0.0029429352802012
0.10499988477617
-0.0031656659893157
0.10506325253445
-0.0033944007819674
0.10513524947204
-0.0036324627750467
0.10521776649083
-0.0038753886618933
0.105310668857
-0.0041305459013299
0.10541707361708
-0.0043850987794152
0.10553553767187
-0.0046581183115627
0.10567121765583
-0.0049163546266289
0.10582081189376
-0.0052123512100063
0.1059919044476
-0.0054591558810929
0.1061832883028
-0.0057992107400763
0.10639471052699
-0.0059967829943719
-0.006450644825531
0.10663615414155
0.098779903421131
-7.5219287202549e-05
0.098780989419108
-0.00023212764557021
0.098782522978835
-0.00038340730161527
0.098784424000861
-0.0005328349591841
0.098786835912382
-0.00068657100155607
0.098790153650426
-0.00084858364862925
0.098794886249526
-0.0010196921514524
0.098801506377524
-0.0011982492311466
0.098810396642834
-0.0013816035918757
0.098821827055296
-0.0015676261389163
0.098836018528542
-0.0017555037253239
0.098853178841375
-0.00194593663943
0.098873633580744
-0.002140348545157
0.098897775043942
-0.0023404210528917
0.098926231724887
-0.0025470501358213
0.09895958158401
-0.002761028897099
0.098998742835459
-0.0029820966683238
0.099044254311948
-0.0032111775994658
0.099097405129054
-0.0034475517281648
0.099158416824094
-0.0036934745933703
0.099229462639279
-0.0039464345928018
0.099309821976488
-0.0042109053460467
0.099403826920813
-0.0044791038224943
0.099507841707861
-0.0047621331890916
0.099631372665228
-0.0050398856661632
0.099762880030017
-0.0053438586485754
0.099923877997104
-0.0056201539139505
0.10008664933924
-0.0059619821425815
0.10029668541334
-0.0062068191283222
0.10054129461375
-0.0066952540946646
0.39440967432344
0.0046612762730675
0.38990668107985
0.0045029932015125
0.3855664394043
0.0043402416340114
0.381393292933
0.0041731464296175
0.3773914506803
0.0040018422108332
0.37356498655969
0.0038264640781418
0.36991782934933
0.0036471571674809
0.36645375426419
0.0034640750415052
0.36317637779714
0.0032773764229341
0.3600891529697
0.0030872247825346
0.35719536423745
0.0028937886868589
0.35449812235861
0.0026972418326512
0.35200035903788
0.0024977632740922
0.34970482127733
0.0022955377131313
0.34761406583996
0.0020907553895566
0.34573045451981
0.0018836112715769
0.34405615084803
0.0016743036228824
0.34259311833113
0.0014630324672566
0.34134312048509
0.0012499977961268
0.34030772187569
0.0010353985587567
0.33948828999334
0.00081943183145435
0.33888599543741
0.00060229450428327
0.33850180815248
0.00038418723303053
0.33833646672654
0.00016534137325748
0.33839051597059
-5.4049297011434e-05
0.33866466823488
-0.00027415231807246
0.33915896513102
-0.00049429695019225
0.33987341685164
-0.00071445177550226
0.34080785004628
-0.00093443324975367
0.3419618950163
-0.001154045025866
0.3433349845025
-0.0013730895421208