/*--------------------------------*- C++ -*----------------------------------*\
| =========                 |                                                 |
| \\      /  F ield         | OpenFOAM: The Open Source CFD Toolbox           |
|  \\    /   O peration     | Version:  2112                                  |
|   \\  /    A nd           | Website:  www.openfoam.com                      |
|    \\/     M anipulation  |                                                 |
\*---------------------------------------------------------------------------*/
FoamFile
{
    version     2.0;
    format      ascii;
    arch        "LSB;label=32;scalar=64";
    class       volVectorField;
    location    "11";
    object      U;
}
// * * * * * * * * * * * * * * * * * * * * * * * * * * * * * * * * * * * * * //

dimensions      [0 1 -1 0 0 0 0];

internalField   nonuniform List<vector> 
22000
(
(1.0000010020063 -2.4724821206941e-05 0)
(1.0000254711752 -7.4104346243881e-05 0)
(1.0000727831244 -0.00012388657549076 0)
(1.0001441661433 -0.00017375722350728 0)
(1.0002400894188 -0.00022339684791781 0)
(1.0003604407675 -0.00027268814664712 0)
(1.0005048801721 -0.00032161121607836 0)
(1.0006730982529 -0.00037016305522854 0)
(1.0008648597296 -0.00041831808770801 0)
(1.0010799751139 -0.00046605189240609 0)
(1.0013182466633 -0.00051330494265199 0)
(1.0015794645625 -0.00056003228704597 0)
(1.0018633539028 -0.00060612397906392 0)
(1.0021696172266 -0.00065153447669061 0)
(1.0024978647023 -0.00069610536857335 0)
(1.0028477269726 -0.00073985469314864 0)
(1.0032187044064 -0.00078254724013278 0)
(1.0036103952279 -0.00082434713517737 0)
(1.0040221683041 -0.00086482076866236 0)
(1.0044536387444 -0.00090444977314531 0)
(1.0049039842102 -0.00094233561310435 0)
(1.005372936602 -0.00097968684190797 0)
(1.0058593569106 -0.0010145163554974 0)
(1.0063632855178 -0.0010496716106374 0)
(1.0068829744681 -0.0010806195006785 0)
(1.007419140444 -0.0011139671081881 0)
(1.0079687986885 -0.0011393504648956 0)
(1.008534128597 -0.0011721139863579 0)
(1.009109756371 -0.0011885749565183 0)
(1.0097009368194 -0.0012242648046257 0)
(1.0000004712039 -7.2831313081312e-05 0)
(1.0000250368469 -0.0002184985544832 0)
(1.0000728573829 -0.00036548464806079 0)
(1.0001450492774 -0.00051284286962463 0)
(1.0002421105858 -0.00065963367277451 0)
(1.0003640243511 -0.00080551340855135 0)
(1.0005105324958 -0.00095041494205788 0)
(1.0006813818907 -0.0010943082481871 0)
(1.0008763555845 -0.0012370919223615 0)
(1.0010952774567 -0.0013786718189006 0)
(1.0013379349255 -0.0015188616288582 0)
(1.0016041347555 -0.0016575273874763 0)
(1.0018935778853 -0.0017943510928833 0)
(1.0022060160532 -0.0019292013429559 0)
(1.0025410097826 -0.0020616144814528 0)
(1.0028982907704 -0.0021916357794978 0)
(1.0032772337382 -0.0023185736233495 0)
(1.0036776416454 -0.0024428962610826 0)
(1.0040985936791 -0.0025633407085819 0)
(1.0045401437268 -0.0026812965064412 0)
(1.0050008305924 -0.0027941588045184 0)
(1.0054813342885 -0.002905412534028 0)
(1.0059791154807 -0.0030093116176054 0)
(1.0064962741408 -0.0031140526482548 0)
(1.0070279894452 -0.0032065703529214 0)
(1.0075795141623 -0.0033058392824129 0)
(1.008141102352 -0.0033821119347592 0)
(1.0087249599476 -0.0034793194881273 0)
(1.0093110190563 -0.0035297576043556 0)
(1.0099262429831 -0.003634873950544 0)
(1.0000004850824 -0.00011921531317196 0)
(1.0000261908595 -0.00035798099035763 0)
(1.0000760928111 -0.00059891322791534 0)
(1.0001512014873 -0.00084053263410821 0)
(1.0002519840467 -0.0010814347717474 0)
(1.0003784786225 -0.0013211308816266 0)
(1.0005305079058 -0.0015595057549076 0)
(1.0007078957206 -0.0017964457737799 0)
(1.0009104566395 -0.0020316965219977 0)
(1.0011380374752 -0.0022650343109517 0)
(1.0013903993178 -0.0024961206222473 0)
(1.0016673679997 -0.0027247476711703 0)
(1.00196860087 -0.0029504187528772 0)
(1.0022939250636 -0.0031729546945393 0)
(1.0026428224428 -0.0033915957303757 0)
(1.003015187967 -0.0036064311158045 0)
(1.0034101939672 -0.0038162868992649 0)
(1.0038279772724 -0.0040219652398534 0)
(1.004267140249 -0.0042213245529237 0)
(1.0047284634594 -0.0044167415543072 0)
(1.0052094142133 -0.0046037829466132 0)
(1.005712271004 -0.0047883755764423 0)
(1.0062320925245 -0.0049607161401253 0)
(1.0067745257421 -0.0051347422524634 0)
(1.0073293516777 -0.0052881993269493 0)
(1.0079098367905 -0.0054533885090808 0)
(1.0084940480338 -0.0055797119052534 0)
(1.0091123945099 -0.005741932207651 0)
(1.0097176049578 -0.0058249517531858 0)
(1.0103772428791 -0.0060012690828654 0)
(1.0000004820381 -0.00016498766963162 0)
(1.0000275055875 -0.00049577514357795 0)
(1.0000799292982 -0.00082922456488299 0)
(1.0001587128578 -0.0011635175346492 0)
(1.0002643267869 -0.0014970702248742 0)
(1.0003968828385 -0.001829409648799 0)
(1.0005562967474 -0.0021603924734371 0)
(1.0007424874771 -0.0024897470231971 0)
(1.0009553115948 -0.0028169548529909 0)
(1.0011946518087 -0.0031415775448662 0)
(1.0014602362005 -0.0034630889252667 0)
(1.0017519218029 -0.0037812341304093 0)
(1.0020693070776 -0.0040953817576637 0)
(1.0024123303467 -0.0044053653396008 0)
(1.0027803652148 -0.004710139028437 0)
(1.0031735452432 -0.0050098656757907 0)
(1.003590759083 -0.005302840933406 0)
(1.0040326275119 -0.0055902545557565 0)
(1.0044970771692 -0.0058689938178295 0)
(1.00498593555 -0.0061425609275287 0)
(1.0054951426575 -0.0064044720646568 0)
(1.0060292723971 -0.0066633855772116 0)
(1.006579949168 -0.0069049149959709 0)
(1.0071579078562 -0.0071494171115303 0)
(1.0077452007128 -0.0073643103356321 0)
(1.0083665888291 -0.0075968535626635 0)
(1.0089826913452 -0.0077731002261454 0)
(1.0096500268792 -0.0080024055952044 0)
(1.010282411674 -0.0081166217937601 0)
(1.0110055539436 -0.0083678036419919 0)
(1.0000004757462 -0.00021039639695306 0)
(1.0000290323674 -0.00063273071916075 0)
(1.000084391887 -0.0010578775916868 0)
(1.0001674570267 -0.0014838744457858 0)
(1.0002787165025 -0.0019092769372866 0)
(1.0004183861235 -0.0023338157473643 0)
(1.0005865058187 -0.0027573462416568 0)
(1.0007831199801 -0.0031793534777928 0)
(1.0010081429755 -0.0035989246834476 0)
(1.0012615097279 -0.0040153063095255 0)
(1.001542913583 -0.0044277417786545 0)
(1.0018522608829 -0.0048359610722304 0)
(1.002189083281 -0.0052392486245099 0)
(1.0025534720003 -0.0056375233068788 0)
(1.0029446705912 -0.006029461503558 0)
(1.0033631310037 -0.0064153375185036 0)
(1.0038073867856 -0.0067928519927521 0)
(1.0042786949971 -0.0071636535764304 0)
(1.0047741222328 -0.0075235324731562 0)
(1.0052968592555 -0.0078773008119706 0)
(1.0058408880144 -0.008216126236699 0)
(1.0064137575697 -0.0085517918721851 0)
(1.007002675488 -0.0088646259328899 0)
(1.007624954704 -0.0091823230642311 0)
(1.008252694488 -0.0094604449152929 0)
(1.0089254952706 -0.0097634062340735 0)
(1.0095814932925 -0.0099905443190455 0)
(1.010310861168 -0.010290877662289 0)
(1.0109772970976 -0.010435606266492 0)
(1.0117812814219 -0.010767813307995 0)
(1.0000004644798 -0.00025557153362648 0)
(1.0000306900776 -0.00076928736393289 0)
(1.0000892414052 -0.0012856079736388 0)
(1.000176946006 -0.0018026475899899 0)
(1.0002943171101 -0.0023194556274659 0)
(1.0004417050392 -0.0028361737018558 0)
(1.0006193101223 -0.0033526842044963 0)
(1.0008273381086 -0.0038681328753742 0)
(1.0010657820716 -0.0043810660107714 0)
(1.0013346494287 -0.0048903024406618 0)
(1.0016336013951 -0.0053948072918829 0)
(1.0019626156475 -0.0058943327445747 0)
(1.0023211550377 -0.0063881363407599 0)
(1.0027095101399 -0.006876306471317 0)
(1.0031267808425 -0.0073572503993361 0)
(1.0035738216399 -0.0078314000845094 0)
(1.0040487509596 -0.0082957846628602 0)
(1.0045536165534 -0.0087525983936614 0)
(1.005084457908 -0.0091963826578581 0)
(1.0056461408147 -0.0096334812043433 0)
(1.0062302875243 -0.010052354467089 0)
(1.0068480795502 -0.010468385718538 0)
(1.007481379818 -0.010855774245636 0)
(1.0081555080761 -0.011250662576892 0)
(1.0088304952482 -0.011594912667988 0)
(1.0095639711559 -0.011972743714146 0)
(1.0102668021772 -0.012252712508392 0)
(1.0110699806436 -0.012629604530608 0)
(1.0117764860146 -0.012804790191917 0)
(1.0126772832923 -0.013226174953269 0)
(1.0000004462776 -0.0003004985702992 0)
(1.0000323813633 -0.00090542600966105 0)
(1.0000941973638 -0.0015123715122486 0)
(1.0001866281599 -0.0021197692420651 0)
(1.0003102170302 -0.0027275461722448 0)
(1.0004654781417 -0.0033364792078693 0)
(1.0006528085843 -0.0039465099592988 0)
(1.0008726129409 -0.0045563442248707 0)
(1.0011249869853 -0.0051638326930944 0)
(1.0014100344738 -0.0057672490053125 0)
(1.0017273919601 -0.0063652312571365 0)
(1.0020771348243 -0.0069575973654427 0)
(1.0024586613839 -0.0075436417545955 0)
(1.0028725123472 -0.0081237169059652 0)
(1.0033176386256 -0.0086959715983826 0)
(1.0037953850754 -0.0092610504796905 0)
(1.0043034071927 -0.0098152275326521 0)
(1.0048446987532 -0.010361343774211 0)
(1.0054141245459 -0.010892521117325 0)
(1.0060185298046 -0.011416888186621 0)
(1.0066468092133 -0.011919792194393 0)
(1.0073144077891 -0.012420759478167 0)
(1.0079969805583 -0.012886903919509 0)
(1.0087292093896 -0.013364079920043 0)
(1.0094570809943 -0.013778353312892 0)
(1.0102592635572 -0.014236755878317 0)
(1.0110148754955 -0.014572435267534 0)
(1.0119024530418 -0.015032869540869 0)
(1.0126543915778 -0.015239165111094 0)
(1.0136667496757 -0.015759685260173 0)
(1.000000419907 -0.00034503194594365 0)
(1.0000340101225 -0.0010407224853447 0)
(1.0000989812596 -0.0017374524711332 0)
(1.0001959539903 -0.0024342355026631 0)
(1.0003255068079 -0.0031322805175004 0)
(1.0004883464349 -0.0038332366563931 0)
(1.0006851028655 -0.0045371416511918 0)
(1.00091641735 -0.0052421609139458 0)
(1.0011825143061 -0.0059452931562531 0)
(1.0014836202118 -0.006644149285658 0)
(1.001819358899 -0.0073369936399589 0)
(1.0021899335024 -0.0080237595558819 0)
(1.0025946881861 -0.0087038480338017 0)
(1.0030344679395 -0.0093779792356889 0)
(1.0035080779006 -0.010044057393622 0)
(1.0040174434967 -0.010703003863435 0)
(1.0045597230654 -0.01135025077206 0)
(1.005139010839 -0.011989400395188 0)
(1.0057488723023 -0.012611971640602 0)
(1.006398425803 -0.01322815758939 0)
(1.007073512896 -0.013819750420638 0)
(1.0077944365896 -0.014411017593872 0)
(1.0085298655628 -0.014960942876281 0)
(1.0093251058409 -0.01552648058662 0)
(1.0101102974661 -0.016015602770677 0)
(1.0109879259053 -0.016561448351115 0)
(1.0118012748501 -0.016956678327037 0)
(1.0127825821876 -0.017509043574111 0)
(1.0135847137543 -0.01774795797408 0)
(1.0147220522946 -0.018379330364625 0)
(1.0000003841725 -0.00038892631892241 0)
(1.0000354829802 -0.001174442747007 0)
(1.0001033215371 -0.0019596249887187 0)
(1.0002043877056 -0.0027443358949602 0)
(1.0003392997945 -0.0035314808048721 0)
(1.000508984454 -0.004323824304247 0)
(1.0007143395697 -0.0051215414305044 0)
(1.0009562799533 -0.0059221607076652 0)
(1.0012351854254 -0.006721676460729 0)
(1.0015514329673 -0.0075169237607766 0)
(1.0019046494751 -0.0083057510081183 0)
(1.0022951984987 -0.0090882623390067 0)
(1.0027223862091 -0.0098640403935529 0)
(1.0031874178092 -0.010634283759697 0)
(1.0036889644159 -0.011396670969776 0)
(1.004229622278 -0.01215247249675 0)
(1.0048060331994 -0.012896193855143 0)
(1.0054235417223 -0.01363232444589 0)
(1.006074316638 -0.014350591683371 0)
(1.0067700253447 -0.015063552759007 0)
(1.0074931828655 -0.015748982022299 0)
(1.008269496021 -0.01643652738737 0)
(1.0090599745269 -0.017075940553399 0)
(1.0099216848485 -0.017736753012364 0)
(1.0107673478159 -0.018306409082827 0)
(1.0117257412752 -0.018947648267881 0)
(1.0126007265005 -0.019407255103112 0)
(1.0136836771953 -0.020061283737519 0)
(1.0145401482868 -0.020335335686602 0)
(1.0158143411565 -0.021090937542138 0)
(1.0000003382528 -0.00043186697632031 0)
(1.0000367119633 -0.0013056353444876 0)
(1.0001069620022 -0.0021773067669369 0)
(1.0002114239732 -0.0030478668185356 0)
(1.0003507604212 -0.0039223312248964 0)
(1.0005261429598 -0.0048048229659223 0)
(1.0007387697516 -0.0056956990811889 0)
(1.0009898633029 -0.0065917616382634 0)
(1.0012799852208 -0.0074878572995851 0)
(1.001609690493 -0.0083799402545087 0)
(1.0019786280236 -0.009265407886757 0)
(1.0023873550451 -0.010144595051079 0)
(1.0028351613902 -0.011017346619822 0)
(1.003323667201 -0.011885454432123 0)
(1.0038514304666 -0.012746398319867 0)
(1.0044218040923 -0.013601875551917 0)
(1.0050309113874 -0.014445390607197 0)
(1.0056854858491 -0.015282450667603 0)
(1.0063762351616 -0.016100812139473 0)
(1.0071176234798 -0.01691570245763 0)
(1.0078886306656 -0.01770041765693 0)
(1.0087208421229 -0.018490642792119 0)
(1.009567073409 -0.019225780917277 0)
(1.0104971206303 -0.019989457609411 0)
(1.0114050041321 -0.020646110035467 0)
(1.0124478857372 -0.021391650837431 0)
(1.0133872487481 -0.021921477509161 0)
(1.0145781398383 -0.022688169101852 0)
(1.015492446137 -0.023001053608203 0)
(1.0169135292497 -0.023895806051648 0)
(1.0000002817204 -0.00047349857746638 0)
(1.0000376176281 -0.0014332178523819 0)
(1.0001096708668 -0.0023887027222627 0)
(1.0002166069555 -0.00334233165707 0)
(1.0003591363229 -0.0043016336646627 0)
(1.0005386966537 -0.0052723261341335 0)
(1.0007568148303 -0.0062549954860857 0)
(1.0010150500318 -0.0072456367933738 0)
(1.0013141708805 -0.0082378197745189 0)
(1.0016549350044 -0.0092265230913625 0)
(1.0020370356765 -0.010208668145943 0)
(1.0024612537253 -0.011184882119907 0)
(1.0029268916708 -0.012155360264036 0)
(1.0034360309862 -0.013122599981414 0)
(1.0039871522161 -0.014083925489273 0)
(1.0045844333901 -0.01504153262419 0)
(1.0052235081809 -0.015987880434875 0)
(1.0059126038776 -0.016929605659016 0)
(1.0066409616873 -0.017852360639968 0)
(1.00742602531 -0.018774310519541 0)
(1.0082431376063 -0.019663877684263 0)
(1.009130112168 -0.020563384200832 0)
(1.0100312360442 -0.021400857289268 0)
(1.0110297393487 -0.022275430267203 0)
(1.012000078218 -0.023026236620267 0)
(1.0131293326055 -0.023885665244282 0)
(1.0141345030542 -0.024492625472047 0)
(1.0154377447787 -0.025384005337067 0)
(1.0164126640988 -0.02574077309806 0)
(1.0179886645855 -0.026791217782691 0)
(1.0000002143114 -0.00051345130030797 0)
(1.0000381316598 -0.0015560561700019 0)
(1.0001112492035 -0.0025919369818587 0)
(1.0002195469366 -0.003625124873937 0)
(1.0003637867246 -0.0046660437640091 0)
(1.000545687169 -0.0057222280290467 0)
(1.0007671272595 -0.0067945423507383 0)
(1.0010300235506 -0.0078781045191801 0)
(1.0013353761657 -0.0089650961998919 0)
(1.0016841625269 -0.010049437256351 0)
(1.0020761491843 -0.011127561467641 0)
(1.0025123582766 -0.012200447201072 0)
(1.002992150345 -0.013268739433222 0)
(1.0035180872102 -0.014335741084309 0)
(1.0040886460374 -0.015398692511358 0)
(1.0047088387917 -0.016460333652118 0)
(1.0053739267324 -0.017512098533722 0)
(1.0060936111825 -0.01856179539918 0)
(1.006855844832 -0.019592969550942 0)
(1.0076809922572 -0.02062683219143 0)
(1.0085409997875 -0.021626783806851 0)
(1.0094798186054 -0.022642077877513 0)
(1.0104335023848 -0.023588782018382 0)
(1.011498555664 -0.024582366097799 0)
(1.0125303091538 -0.025435227763315 0)
(1.013745375812 -0.026418297707237 0)
(1.0148168485749 -0.027110559215781 0)
(1.0162340377677 -0.02813907841989 0)
(1.0172712960489 -0.028546000722114 0)
(1.0190076905534 -0.029769700310613 0)
(1.0000001365377 -0.00055136591368741 0)
(1.0000382002909 -0.0016730411378535 0)
(1.0001115378005 -0.0027851769761556 0)
(1.0002199340791 -0.0038937009737443 0)
(1.0003642051474 -0.0050122842634556 0)
(1.0005463577397 -0.0061504827686235 0)
(1.000768639625 -0.0073094880662743 0)
(1.0010333350973 -0.0084834820652081 0)
(1.0013416989201 -0.0096631668874971 0)
(1.0016949348324 -0.010841333617553 0)
(1.0020929193636 -0.012013929639396 0)
(1.0025369147033 -0.013182339817201 0)
(1.0030264071911 -0.014347767077897 0)
(1.0035644144805 -0.015514405275579 0)
(1.0041495435589 -0.016679512998264 0)
(1.0047875463921 -0.017846384777441 0)
(1.0054735845834 -0.019005539046581 0)
(1.0062185633772 -0.02016587485678 0)
(1.0070097177838 -0.021309070940667 0)
(1.0078696679003 -0.022459126094471 0)
(1.0087681409817 -0.023574878572243 0)
(1.0097537367679 -0.024711948510264 0)
(1.0107566939297 -0.025775122972124 0)
(1.0118834384873 -0.026895278304975 0)
(1.0129757127649 -0.027859449552928 0)
(1.0142709280878 -0.028974166767071 0)
(1.0154131976225 -0.029764836815923 0)
(1.016934859738 -0.030936131158352 0)
(1.0180481164182 -0.031410988413171 0)
(1.0199399810171 -0.03282212181169 0)
(1.0000000489569 -0.00058691486421575 0)
(1.0000377906054 -0.0017831547157498 0)
(1.0001104345619 -0.0029667435219533 0)
(1.0002175631203 -0.0041457262076817 0)
(1.0003600485704 -0.0053373369779049 0)
(1.0005401882642 -0.0065533370785044 0)
(1.0007606062322 -0.0077952911573086 0)
(1.0010239583422 -0.0090564014762819 0)
(1.0013317681346 -0.010325817304921 0)
(1.0016854698031 -0.011595149251712 0)
(1.0020850771391 -0.01285986549763 0)
(1.0025320938482 -0.014121816315964 0)
(1.0030261828205 -0.015382863508634 0)
(1.0035708065503 -0.016648183193442 0)
(1.0041647967742 -0.017915144161978 0)
(1.0048145965616 -0.019187639665024 0)
(1.0055154563467 -0.020455347756179 0)
(1.0062793251976 -0.021728269264525 0)
(1.0070931369739 -0.022986348455134 0)
(1.0079812768503 -0.024256286597609 0)
(1.0089122659974 -0.025492686009328 0)
(1.0099379634356 -0.026757014363375 0)
(1.0109852316029 -0.027943763101215 0)
(1.0121670402608 -0.029197586324757 0)
(1.013316706423 -0.030282529961317 0)
(1.0146856627856 -0.031537630077358 0)
(1.0158985192788 -0.03243830495193 0)
(1.017517646141 -0.033762336890021 0)
(1.0187138583008 -0.03432213373609 0)
(1.0207540769081 -0.035932111365874 0)
(0.99999995271958 -0.00061981418907869 0)
(1.0000368850932 -0.0018855045223104 0)
(1.0001078915801 -0.0031351716903363 0)
(1.0002123398643 -0.0043791718264655 0)
(1.0003511543201 -0.0056385738589488 0)
(1.0005269206402 -0.0069275018301009 0)
(1.0007426370986 -0.0082479352831431 0)
(1.0010013290295 -0.009592066423513 0)
(1.0013047927511 -0.010947437019665 0)
(1.0016546977055 -0.01230444423616 0)
(1.00205120759 -0.013658089977374 0)
(1.0024960765184 -0.015010751969259 0)
(1.0029891665591 -0.016365040441612 0)
(1.0035343971061 -0.017727210270022 0)
(1.0041308631309 -0.019094819954814 0)
(1.0047857139309 -0.020472434270792 0)
(1.0054943540728 -0.02184894148512 0)
(1.0062697924513 -0.023235529427879 0)
(1.0070987698077 -0.02461044043498 0)
(1.00800744075 -0.026003218837671 0)
(1.0089633014447 -0.027364181852125 0)
(1.0100214206413 -0.028760855717708 0)
(1.0111056181144 -0.030077245891965 0)
(1.0123351893041 -0.031472074398761 0)
(1.0135356722418 -0.032686089429235 0)
(1.0149719839629 -0.034091331744484 0)
(1.0162502705611 -0.035112383547421 0)
(1.0179621280727 -0.036601944121558 0)
(1.0192384768682 -0.037258402074528 0)
(1.0214236677393 -0.03908403797434 0)
(0.99999984900241 -0.00064983315371581 0)
(1.0000354843593 -0.0019793538561495 0)
(1.0001039080573 -0.0032892602615809 0)
(1.0002042615573 -0.0045923829311178 0)
(1.000337514301 -0.0059138477929832 0)
(1.0005065309447 -0.0072702688866772 0)
(1.0007146733963 -0.0086640763735316 0)
(1.0009653267472 -0.01008643340304 0)
(1.0012605544737 -0.011523238848365 0)
(1.0016022597246 -0.012963658663029 0)
(1.0019907608524 -0.014402248623847 0)
(1.0024280686308 -0.015841972713221 0)
(1.002914254421 -0.017286273179642 0)
(1.003453702806 -0.018742572556444 0)
(1.0040457903878 -0.020208699463211 0)
(1.0046983880038 -0.021689964716966 0)
(1.0054070924005 -0.023174532918166 0)
(1.0061859978078 -0.024674862611848 0)
(1.0070217212816 -0.026167563422349 0)
(1.0079422199538 -0.027685132581482 0)
(1.0089140814415 -0.029173644294311 0)
(1.0099956149059 -0.030706811476283 0)
(1.0111077905169 -0.032158119261505 0)
(1.0123762219269 -0.033700556161028 0)
(1.0136190138981 -0.035051358728731 0)
(1.0151144037381 -0.036616105981401 0)
(1.0164507987055 -0.037767726954877 0)
(1.0182484443422 -0.039435347217303 0)
(1.019599934281 -0.040201033977966 0)
(1.0219241474084 -0.042258622174416 0)
(0.99999973979195 -0.00067680397498763 0)
(1.0000336032242 -0.0020641552528747 0)
(1.0000985249445 -0.0034281236926062 0)
(1.0001934108264 -0.004784144810539 0)
(1.000319263642 -0.0061615722391253 0)
(1.0004792109926 -0.0075796050235605 0)
(1.0006769599675 -0.0090411532590979 0)
(1.0009162375001 -0.010536343321155 0)
(1.0011993618695 -0.012049414731496 0)
(1.0015284620013 -0.0135682980013 0)
(1.0019040077373 -0.01508712787725 0)
(1.002328264232 -0.016609507016372 0)
(1.002801513079 -0.018139784815763 0)
(1.0033286029339 -0.019686630572669 0)
(1.0039091969197 -0.02124822278289 0)
(1.0045518907329 -0.022830691811656 0)
(1.005252494677 -0.02442155641437 0)
(1.0060262031864 -0.026034630037875 0)
(1.0068595603571 -0.027644980860465 0)
(1.0077823492686 -0.029288162433998 0)
(1.0087603484112 -0.030906093219685 0)
(1.0098551294139 -0.032578781828858 0)
(1.0109849999474 -0.034169256195789 0)
(1.0122818827244 -0.03586489589835 0)
(1.013556792637 -0.03735942147872 0)
(1.0151011431174 -0.039092211133182 0)
(1.0164862859869 -0.040384215363286 0)
(1.0183605737083 -0.042241787820533 0)
(1.0197799466585 -0.043129503603516 0)
(1.0222342346421 -0.04543427885281 0)
(0.99999962643989 -0.00070062505444535 0)
(1.0000312706292 -0.0021395606786934 0)
(1.0000918233019 -0.0035512099888289 0)
(1.0001799470783 -0.0049537090430511 0)
(1.0002966661767 -0.0063807572333266 0)
(1.000445347594 -0.0078542005713449 0)
(1.0006300168942 -0.0093774514568553 0)
(1.00085471707 -0.010939601722437 0)
(1.0011220032894 -0.012523234046671 0)
(1.0014342154193 -0.014115050950159 0)
(1.0017919671215 -0.015708795933929 0)
(1.0021977660181 -0.017308752195135 0)
(1.0026520961442 -0.018920242077286 0)
(1.0031602541576 -0.020553245844021 0)
(1.0037221853904 -0.022206371982316 0)
(1.0043471970482 -0.023886638545088 0)
(1.0050313221676 -0.025581008392965 0)
(1.0057908507787 -0.027304728926882 0)
(1.0066122894213 -0.029031436372684 0)
(1.0075272497895 -0.030799835605695 0)
(1.0085007826917 -0.032547813093198 0)
(1.009597726044 -0.034361766635556 0)
(1.0107338928869 -0.036094422438849 0)
(1.0120475181885 -0.037947617623491 0)
(1.0133428483529 -0.039591760743319 0)
(1.0149243920412 -0.041500108861212 0)
(1.0163470850055 -0.042941637822476 0)
(1.0182868289759 -0.045000260291361 0)
(1.0197644985402 -0.046022547682403 0)
(1.0223368864171 -0.048587875250996 0)
(0.99999951133979 -0.00072125808208682 0)
(1.0000285245789 -0.0022054160605511 0)
(1.0000839130769 -0.0036582936850833 0)
(1.0001640921334 -0.0051007864579261 0)
(1.0002700928257 -0.006571004171692 0)
(1.000405490795 -0.0080934685965506 0)
(1.0005745967246 -0.0096721119961442 0)
(1.0007817339491 -0.011295001603896 0)
(1.0010296749823 -0.012943084519631 0)
(1.0013209483379 -0.014601849552487 0)
(1.00165630508 -0.016264685303886 0)
(1.0020384679634 -0.017936580738886 0)
(1.0024681153806 -0.019623892593119 0)
(1.0029509493017 -0.021337949581619 0)
(1.0034871949686 -0.023077878544778 0)
(1.0040868228387 -0.024851631406033 0)
(1.0047461109652 -0.026645731250548 0)
(1.0054823921093 -0.028476916390869 0)
(1.0062821919603 -0.030317530237377 0)
(1.007178885724 -0.032209505534499 0)
(1.008136904257 -0.034086849954734 0)
(1.0092242808968 -0.036042439992242 0)
(1.0103545051413 -0.037918898156414 0)
(1.0116720886535 -0.03993257931152 0)
(1.0129747764925 -0.041730904221252 0)
(1.0145802478044 -0.043821072657653 0)
(1.0160275259254 -0.045420389085396 0)
(1.0180199623225 -0.04769049454616 0)
(1.0195444777 -0.048859527434813 0)
(1.0222203272387 -0.051697716696204 0)
(0.99999939545328 -0.00073871973122396 0)
(1.0000254049827 -0.0022617367771452 0)
(1.0000749178549 -0.0037494394816459 0)
(1.0001461039706 -0.0052255027855061 0)
(1.0002399864626 -0.0067324554963711 0)
(1.0003603054429 -0.0082974904221914 0)
(1.0005116181597 -0.0099250757709499 0)
(1.0006984843612 -0.011602272937861 0)
(1.0009238790448 -0.01330843582241 0)
(1.0011904843225 -0.015027851753177 0)
(1.0014991934459 -0.016753599065147 0)
(1.0018528899893 -0.01849136807517 0)
(1.002252458494 -0.020248622166632 0)
(1.002703910993 -0.022038029004683 0)
(1.0032077910068 -0.023859361134869 0)
(1.0037745930886 -0.025721483557239 0)
(1.0044009459138 -0.027610668509523 0)
(1.0051050250464 -0.029545102483261 0)
(1.0058735798952 -0.031496086341634 0)
(1.0067414591731 -0.033508729006175 0)
(1.0076727994863 -0.035513475189696 0)
(1.0087384676564 -0.037609620493325 0)
(1.0098500741429 -0.039630086268814 0)
(1.0111579636848 -0.041805626131391 0)
(1.0124540839397 -0.043761132450939 0)
(1.0140682842558 -0.046037896856523 0)
(1.0155261589416 -0.047801275707779 0)
(1.0175548718325 -0.050293539944674 0)
(1.0191155829426 -0.051619453216847 0)
(1.0218753415424 -0.05474340533506 0)
(0.99999927955675 -0.00075307719237006 0)
(1.0000219462631 -0.002308684349854 0)
(1.000064953908 -0.0038249430028688 0)
(1.0001262492786 -0.005328295380096 0)
(1.000206828191 -0.0068656551982926 0)
(1.0003105284968 -0.0084668510054822 0)
(1.0004421071088 -0.01013689437253 0)
(1.0006063062386 -0.011861862331629 0)
(1.000806309222 -0.013619584616093 0)
(1.0010449044196 -0.015393156466903 0)
(1.0013231562144 -0.017175402514589 0)
(1.0016440015623 -0.018972660448893 0)
(1.0020085898134 -0.020793594752541 0)
(1.0024230454999 -0.022652119396258 0)
(1.0028883872719 -0.02454887258241 0)
(1.0034153063835 -0.026493472977969 0)
(1.0040011338912 -0.028472322297324 0)
(1.0046643172758 -0.030504731065071 0)
(1.0053924884587 -0.032561549433699 0)
(1.0062209992727 -0.034690516455853 0)
(1.0071148480538 -0.03681941593574 0)
(1.0081461956866 -0.039053226235742 0)
(1.0092267856763 -0.041216278010728 0)
(1.0105101743979 -0.043553184728756 0)
(1.011786338278 -0.045666597733061 0)
(1.01339159464 -0.048133157929232 0)
(1.0148463011551 -0.050063085052511 0)
(1.0168900832239 -0.052785468524149 0)
(1.0184736768002 -0.054276767032972 0)
(1.0212973328174 -0.0576907284774 0)
(0.99999916330221 -0.00076446681922041 0)
(1.0000182151369 -0.002346625220321 0)
(1.0000542034528 -0.0038853865842139 0)
(1.000104879296 -0.0054098928378939 0)
(1.0001711913918 -0.0069713974136632 0)
(1.0002570060273 -0.0086023492341154 0)
(1.0003672313155 -0.01030832742349 0)
(1.0005067175849 -0.012074440437098 0)
(1.0006788731332 -0.013877060002669 0)
(1.0008865388959 -0.015698080096762 0)
(1.0011310247568 -0.017530134568733 0)
(1.0014151564622 -0.019380106786138 0)
(1.001740476816 -0.021257987471407 0)
(1.0021128647395 -0.023178740745297 0)
(1.0025341587766 -0.025144211360446 0)
(1.0030145935219 -0.027164379191448 0)
(1.0035530418421 -0.029226474346894 0)
(1.0041669355804 -0.03135008329559 0)
(1.0048465103329 -0.033506920377867 0)
(1.005625052229 -0.035745732939788 0)
(1.0064718135706 -0.037993945525401 0)
(1.0074554072458 -0.040359631335236 0)
(1.0084942015764 -0.042661761033773 0)
(1.0097362969233 -0.045156003270289 0)
(1.0109813833234 -0.0474252401934 0)
(1.0125576409033 -0.050080915456616 0)
(1.0139980887609 -0.052176322609552 0)
(1.0160325762918 -0.055129506141073 0)
(1.01762397347 -0.056785956731791 0)
(1.0204832640727 -0.060485477941871 0)
(0.99999904659623 -0.00077313449028889 0)
(1.0000143636552 -0.002376340512276 0)
(1.0000430989606 -0.0039320759923332 0)
(1.0000827611135 -0.0054719948557628 0)
(1.000134134565 -0.0070515613942154 0)
(1.0002010416818 -0.0087058233328619 0)
(1.0002885471431 -0.010441049805632 0)
(1.0004015963691 -0.01224152931089 0)
(1.0005438423972 -0.014082286264586 0)
(1.0007181247188 -0.015943975300806 0)
(1.0009260754618 -0.017819044864771 0)
(1.0011702193788 -0.019714754386734 0)
(1.0014526486946 -0.021642520264941 0)
(1.0017785585478 -0.023618143550657 0)
(1.0021511017188 -0.025645138551341 0)
(1.002579136427 -0.027733319247106 0)
(1.0030643823802 -0.029871711677422 0)
(1.0036211335714 -0.032078750452127 0)
(1.0042453091579 -0.034329155659872 0)
(1.0049632722807 -0.036669606350106 0)
(1.0057556046666 -0.039031760949736 0)
(1.0066766709984 -0.041520854424367 0)
(1.0076669849395 -0.04395860643971 0)
(1.0088466968845 -0.046602591129435 0)
(1.0100571314926 -0.049025800386944 0)
(1.0115746134393 -0.051868038099007 0)
(1.0130065490325 -0.054125211235713 0)
(1.0149902885609 -0.057321212175372 0)
(1.0166114786335 -0.059118143723517 0)
(1.019443256183 -0.063163433422878 0)
(0.99999890180662 -0.00077951898146521 0)
(1.0000104558863 -0.0023992822064821 0)
(1.0000320296725 -0.0039675895888258 0)
(1.0000607611376 -0.0055185251566849 0)
(1.0000970236442 -0.0071115583851371 0)
(1.0001443760537 -0.0087840731776066 0)
(1.0002079124405 -0.010543077120451 0)
(1.0002927816404 -0.012372283818569 0)
(1.0004029865612 -0.014245843110237 0)
(1.0005415537283 -0.016143256157026 0)
(1.0007105633615 -0.018056694262033 0)
(1.0009120940592 -0.019993646115487 0)
(1.0011486735778 -0.02196700665917 0)
(1.0014244916832 -0.023993260381462 0)
(1.0017441995162 -0.026078130307241 0)
(1.0021148053789 -0.028230924594617 0)
(1.0025417516661 -0.030443742450275 0)
(1.0030346551724 -0.032732368503384 0)
(1.0035975517538 -0.03507750230641 0)
(1.004245270092 -0.037519507127221 0)
(1.0049769802701 -0.040001748066932 0)
(1.0058202879833 -0.042616274678922 0)
(1.0067580474752 -0.045204310808583 0)
(1.0078501342966 -0.048003294405011 0)
(1.0090293554176 -0.050607085336225 0)
(1.0104444525646 -0.05365006230782 0)
(1.011889445208 -0.056104704960984 0)
(1.0137520886665 -0.059597992872221 0)
(1.0154904029302 -0.061559597354245 0)
(1.0182072156648 -0.066244626756605 0)
(0.99999866619013 -0.00078501389560301 0)
(1.00000572762 -0.002419667451523 0)
(1.0000199149448 -0.0039996568400522 0)
(1.0000376253116 -0.0055617071859141 0)
(1.000058875279 -0.0071695303900474 0)
(1.0000869021858 -0.0088628292385646 0)
(1.0001265866105 -0.010648891407712 0)
(1.0001831067459 -0.012510308428128 0)
(1.0002610955782 -0.01441963660806 0)
(1.0003636653205 -0.016355620796734 0)
(1.0004931528359 -0.018310722317137 0)
(1.0006514731084 -0.020292918212876 0)
(1.00084133106 -0.022316950033813 0)
(1.0010661069754 -0.024400311204427 0)
(1.0013312936942 -0.026551169179448 0)
(1.0016426450996 -0.028778173024041 0)
(1.0020084074225 -0.031076973868729 0)
(1.0024351642844 -0.033459837315088 0)
(1.0029332620815 -0.035915518338438 0)
(1.003508820304 -0.038474311247099 0)