/*--------------------------------*- C++ -*----------------------------------*\
| =========                 |                                                 |
| \\      /  F ield         | OpenFOAM: The Open Source CFD Toolbox           |
|  \\    /   O peration     | Version:  2112                                  |
|   \\  /    A nd           | Website:  www.openfoam.com                      |
|    \\/     M anipulation  |                                                 |
\*---------------------------------------------------------------------------*/
FoamFile
{
    version     2.0;
    format      ascii;
    arch        "LSB;label=32;scalar=64";
    class       volScalarField;
    location    "4.3";
    object      p;
}
// * * * * * * * * * * * * * * * * * * * * * * * * * * * * * * * * * * * * * //

dimensions      [0 2 -2 0 0 0 0];

internalField   nonuniform List<scalar> 
22000
(
0.10677751391639
0.10673815555656
0.10665609827142
0.10652945030709
0.10635745831794
0.10614021316238
0.10587808986277
0.10557140563124
0.10522034415928
0.10482501781919
0.10438554032214
0.1039020637716
0.10337477931115
0.10280391726625
0.1021897384286
0.10153254426433
0.10083266693175
0.10009049632329
0.099306450765113
0.098481017388153
0.097614673982994
0.096707986296336
0.095761462476642
0.094775861032599
0.093751829438654
0.092690489408203
0.091592347195786
0.090458872195501
0.08929015503102
0.0880887371653
0.10751942241275
0.10747825812321
0.10739423457021
0.1072656833134
0.10709179039558
0.10687251285906
0.10660811859951
0.10629886136178
0.10594488694418
0.10554627679111
0.10510311052091
0.10461550191528
0.10408359694484
0.10350757689686
0.10288764535255
0.10222404698986
0.10151705237563
0.10076700730307
0.099974281252463
0.099139344653573
0.098262621056357
0.097344665292162
0.096385875606113
0.095387052139402
0.094348693594729
0.093272089066899
0.092157367205962
0.091006314489044
0.089818090366736
0.088595732339814
0.10887518974273
0.10883326730151
0.10874785871555
0.10861744759697
0.10844127807413
0.10821927181034
0.10795162630461
0.10763852739357
0.10728006111329
0.10687625099215
0.10642711296888
0.10593269164484
0.1053930551994
0.10480830470591
0.10417855325051
0.10350395844812
0.10278469190332
0.10202102252997
0.10121321943282
0.10036169870408
0.099466755070439
0.09852890735367
0.097548350245314
0.096525964749851
0.095461960885258
0.094357956356953
0.093213408788015
0.092030851949221
0.090807768748556
0.089548433002954
0.11074781972465
0.11070533754209
0.11061879000343
0.11048665902267
0.11030818047013
0.11008324707013
0.10981200573536
0.10949457633687
0.10913096730683
0.1087211161767
0.10826494290959
0.10776238921847
0.10721340841227
0.1066179829571
0.10597609271091
0.10528776837425
0.10455303635662
0.10377204723667
0.10294490896614
0.10207193853162
0.10115322767217
0.10018924212203
0.099179883236279
0.098126134346214
0.097027744514219
0.095886767648549
0.09470166127431
0.093476012549391
0.092204822182494
0.090894098784371
0.11305052358249
0.1130075917695
0.1129201166995
0.1127865676025
0.11260615185645
0.11237871335709
0.11210433018759
0.11178303612558
0.11141473698583
0.11099925452074
0.11053637813027
0.11002590881161
0.10946764323307
0.10886140252432
0.10820698548008
0.10750424796687
0.10675301273203
0.10595325753775
0.10510485902976
0.10420798894659
0.10326246117411
0.10226866470291
0.10122610083523
0.10013585999545
0.098997049284979
0.097812259555354
0.096578625476257
0.095301098115366
0.093971457799571
0.092598013546205
0.11570550721031
0.11566235007794
0.11557440109854
0.11544012479322
0.11525869252423
0.11502987951488
0.11475367010303
0.11442998548541
0.11405859999138
0.11363918737618
0.11317136988079
0.11265476797163
0.11208897766436
0.11147361321078
0.11080824103055
0.11009249025075
0.10932591798973
0.10850827196387
0.10763912165361
0.10671843495678
0.10574565219926
0.10472104135684
0.10364357929777
0.10251445780305
0.10133194986858
0.10009926908873
0.098811895242856
0.097476433877123
0.096080703844814
0.094635818823325
0.11864237907403
0.11859935597059
0.11851165584283
0.11837774787413
0.11819676205331
0.11796838728046
0.11769249043089
0.11736885402926
0.11699709246362
0.11657670031309
0.11610709690266
0.11558768227886
0.1150178054521
0.11439682349837
0.11372401233511
0.11299871501996
0.1122201538219
0.11138778122003
0.1105007770647
0.10955883939541
0.10856093360646
0.10750715569568
0.1063958269603
0.10522822612484
0.10400158557583
0.10271980621226
0.10137636156328
0.099979763142974
0.098513106994577
0.096990739697362
0.12179682060302
0.12175441371398
0.1216679346643
0.12153586516073
0.12135729038196
0.12113179791863
0.12085911585722
0.12053886384148
0.12017046911432
0.11975321625765
0.11928628567667
0.11876881673437
0.11819986570202
0.11757848388029
0.11690360207774
0.1161742200784
0.11538915746035
0.11454750154845
0.11364795451416
0.11268986613262
0.11167161377613
0.11059305554297
0.10945170275934
0.10824888805744
0.10698056358407
0.10565135601573
0.10425236511703
0.10279420743499
0.10125453051134
0.099651279067366
0.12510980651158
0.1250685945143
0.12498452647576
0.12485609398154
0.12468233108081
0.12446271300323
0.12419681128711
0.12388406156768
0.12352368060812
0.12311471704426
0.12265608197422
0.12214661905088
0.12158505087073
0.12097007554361
0.12030022424257
0.11957409056118
0.11879002184894
0.11794666224518
0.11704215056922
0.11607540348969
0.11504409668988
0.11394778322244
0.11278299715154
0.11155110188163
0.11024652150675
0.10887460715555
0.10742376762232
0.10590668555682
0.10429495863357
0.10261000012777
0.12852726082919
0.12848790623908
0.12840760079088
0.1282848530065
0.12811863985571
0.12790831655647
0.12765328789956
0.12735279073035
0.12700581275196
0.12661114502856
0.12616740389002
0.12567310706229
0.12512660726582
0.12452620685661
0.12386999001338
0.123156087307
0.12238231374677
0.12154679271006
0.12064702145776
0.11968138496806
0.11864675261756
0.11754226700811
0.11636334766151
0.11511127114132
0.11377882631931
0.11237182617363
0.11087627681138
0.10930598570606
0.10762784672634
0.10586426480106
0.1319998999239
0.13196311822441
0.13188803219186
0.13177318445897
0.13161749394602
0.13142018846394
0.13118049933005
0.13089745722292
0.13056981056687
0.13019607997469
0.12977456986615
0.12930345097289
0.12878068100114
0.12820413535885
0.12757141332599
0.12688013281025
0.12612752336322
0.12531110935224
0.1244276844336
0.12347497645879
0.12244900242357
0.12134827572804
0.12016714255524
0.11890635072733
0.11755735838555
0.116125473578
0.11459524878333
0.11298020660197
0.11124417985906
0.10941149858363
0.13548325099499
0.13544978124924
0.13538141983285
0.13527676728406
0.13513469070436
0.13495428699072
0.13473461114092
0.13447448751968
0.13417242464087
0.13382666986519
0.13343521008153
0.13299586031959
0.13250616840156
0.13196356185584
0.13136512885472
0.13070793883685
0.12998859409197
0.12920395936345
0.12835006837595
0.12742389000016
0.12642052652324
0.12533770081906
0.12416861550599
0.1229133175154
0.12156169659497
0.12011871567563
0.11856660785888
0.11691945855056
0.11513680105454
0.11324424448636
0.13893775414318
0.13890833132934
0.13884819299138
0.13875602497361
0.13863065521515
0.13847105258954
0.13827609851959
0.13804441795077
0.13777428851268
0.13746369273293
0.13711030591601
0.13671159088532
0.13626468585892
0.13576656680607
0.13521379969555
0.13460288870055
0.13392978269645
0.13319064898209
0.13238070940873
0.13149610850816
0.13053095029789
0.1294820722543
0.12834140552665
0.12710818115297
0.1257705078728
0.12433289879563
0.12277491714569
0.12111112490835
0.11929609210838
0.11735685012193
0.14232886251904
0.14230419141512
0.14225371545678
0.14217623492937
0.14207055576948
0.1419355283418
0.14176987023478
0.14157202127576
0.14134004643898
0.14107168339269
0.14076431533781
0.14041507177575
0.14002069799637
0.13957773215853
0.13908222650562
0.13853012122288
0.13791670271381
0.13723742516063
0.13648666830291
0.13565971072701
0.13474959527431
0.13375219900886
0.13265807223513
0.1314655254231
0.13016067395572
0.12874749845675
0.12720239651118
0.12554051161906
0.12371015199604
0.1217393580112
0.14562708599206
0.14560781789539
0.14556833689404
0.14550758760387
0.14542437423716
0.14531744375535
0.14518536700178
0.14502642123636
0.1448384864641
0.14461908658112
0.14436534494323
0.14407409075813
0.14374170860119
0.14336433041011
0.14293752219672
0.14245668448075
0.14191645651222
0.14131158724893
0.14063560860057
0.13988292066394
0.13904546724507
0.13811812065572
0.1370899664409
0.13595831876135
0.13470713806108
0.13333975405331
0.13182918988105
0.13019064507639
0.12836616103693
0.12638196968985
0.14880794663367
0.14879466029362
0.1487673606674
0.14872516591271
0.14866690161836
0.14859123104702
0.148496601786
0.14838115851855
0.1482426324843
0.14807837472809
0.14788529269437
0.14765996177223
0.14739845342124
0.14709654246847
0.1467493560274
0.14635180190589
0.1458979115029
0.14538176570594
0.14479606906633
0.14413435925596
0.14338747491836
0.14254926631235
0.14160731411161
0.14055785646337
0.13938264454456
0.13808412777872
0.13663191184866
0.13504069618162
0.13324578433032
0.13127023197717
0.15185183880256
0.15184502090123
0.15183090986936
0.15180882764158
0.15177764071572
0.15173595156676
0.15168211413053
0.15161417691701
0.15152976558064
0.15142610720039
0.15129994730592
0.15114766590566
0.15096508350573
0.15074768326762
0.15049021925343
0.15018717394894
0.14983203355187
0.14941827333639
0.14893782351702
0.14838340418299
0.14774478378057
0.14701479094073
0.14617952560105
0.14523406641016
0.14415797259389
0.14295263642954
0.14158416534334
0.14006651327741
0.13832748974114
0.13638612181689
0.15474378883096
0.1547438339195
0.15474372285927
0.15474300691398
0.15474062068689
0.15473513286052
0.15472483550891
0.15470772187032
0.15468136091626
0.15464291081474
0.15458901712093
0.15451593190293
0.15441929854621
0.15429438662195
0.15413565931822
0.15393725925939
0.15369221245367
0.15339347600196
0.15303228781981
0.15260062764228
0.15208726858038
0.15148405553551
0.15077567368374
0.14995600206338
0.14900244383261
0.14791520413402
0.14665680070944
0.14524040309835
0.14358554519999
0.14170673788104
0.15747313150965
0.15748032612266
0.15749481065476
0.15751639953105
0.1575441169357
0.15757651996437
0.15761187506337
0.15764816405447
0.15768295107361
0.15771338393703
0.15773607653873
0.1577472276005
0.15774238790897
0.15771670129435
0.15766443686554
0.1575794966457
0.15745455253204
0.1572821511364
0.15705294623562
0.15675828197552
0.15638603980243
0.15592716463747
0.15536503109255
0.15469235988563
0.15388447503565
0.15294033851542
0.15181872189106
0.15053190833338
0.14899057563829
0.14720444526952
0.16003309788264
0.16004762910932
0.16007710707701
0.16012162427787
0.16018031436157
0.16025175438205
0.16033422470297
0.16042574126732
0.16052391519401
0.16062593979271
0.16072846590681
0.16082771458021
0.16091923687738
0.16099814533118
0.16105862822896
0.16109445570737
0.16109807596211
0.16106174577804
0.16097567683565
0.16083069956866
0.16061394376343
0.16031555133547
0.15991772042978
0.15941209006316
0.15877208234976
0.15799552705553
0.15703747607643
0.15590909800126
0.15451129537225
0.1528483621814
0.16242038400794
0.16244235606983
0.16248703807211
0.16255481169842
0.16264493587963
0.16275603457006
0.16288644186968
0.16303425628123
0.16319719459652
0.16337255593343
0.16355709914681
0.16374713710735
0.16393831149221
0.16412578849746
0.16430379834805
0.16446608509966
0.16460503376486
0.16471273061925
0.1647791423259
0.16479470477338
0.1647460248747
0.16462251915141
0.16440543508073
0.16408529526768
0.16363382821587
0.1630478330341
0.162279072403
0.16133827626953
0.16011536280686
0.15860737108183
0.16463464465913
0.16466407252273
0.16472400072173
0.16481509991898
0.16493677222512
0.16508771066838
0.16526632592931
0.16547082846076
0.16569909014765
0.16594858135606
0.16621625792342
0.16649860910829
0.16679147120332
0.1670901420436
0.16738901885142
0.16768189740095
0.16796127771012
0.16821915262865
0.16844550769253
0.16863043166055
0.16876040338277
0.16882405762307
0.16880227299208
0.16868409806659
0.16844017183501
0.16806536811998
0.16750868208297
0.16678150081207
0.16576368208345
0.16444726541633
0.16667807494278
0.16671479318139
0.16678974860812
0.1669039294946
0.16705692223093
0.1672475010969
0.16747416068049
0.16773523509482
0.1680287724541
0.16835244601705
0.1687034649987
0.16907856232386
0.16947388003949
0.16988495227413
0.17030651211884
0.17073250142231
0.17115574541461
0.17156816848162
0.17196009189807
0.17232114535783
0.17263827776501
0.17289889280368
0.17308476326533
0.17318220458524
0.17316326018039
0.17301739026845
0.17269344839674
0.17219647818323
0.17140150351146
0.17030590733641
0.1685552895303
0.16859876597536
0.16868795468676
0.16882436210218
0.16900783029256
0.16923721787766
0.16951112166273
0.16982800250007
0.17018611141245
0.17058337752669
0.17101730365288
0.17148487206487
0.17198251921347
0.17250600921855
0.1730504930042
0.17361016632098
0.17417843131752
0.17474727506362
0.17530775153669
0.17584894057141
0.17635897452942
0.17682327561202
0.17722633558976
0.17754918281736
0.17777069862845
0.17786754467204
0.17780207393074
0.17754620520872
0.17698590022148
0.17607052213344
0.17027378255441
0.17032330931006
0.17042513018258
0.17058194245572
0.17079369898207
0.17105931094635
0.1713777030932
0.17174750319144
0.17216717345675
0.17263494723836
0.17314874193336
0.17370597809139
0.17430352819341
0.17493741370096
0.17560306152638
0.17629478116844
0.17700645347648
0.17773029150947
0.17845837120492
0.17917973330006
0.17988427428546
0.18055579592588
0.18118260660646
0.18173935287167
0.18221599614721
0.18256986103678
0.18279805121959
0.18281495460975
0.18257892598549
0.1817604418927
0.086930373896151
0.085820768486177
0.084685229578157
0.083525809119421
0.082344435096255
0.081142512778196
0.079921122139733
0.078681297440946
0.077424170620312
0.076150985183928
0.074863048951384
0.073561682015175
0.072248189135984
0.070923859316409
0.069589978807174
0.068247843728441
0.066898767169787
0.065544082869714
0.064185147832436
0.062823344859948
0.061460084831084
0.060096808118722
0.058734993010895
0.057376160356492
0.056021854040538
0.05467329015474
0.053331522176902
0.05199789521833
0.050673859206343
0.049360806071973
0.048060018908424
0.046772689874795
0.045499949809045
0.044242869919745
0.043002453664126
0.041779638019697
0.040575310697279
0.039390309116838
0.038225427850399
0.037081396921369
0.035958903490638
0.0348585367989
0.033780838164002
0.032726177709875
0.031694925166524
0.030687200964928
0.029703313444979
0.028743132371589
0.027807076934212
0.026894491304159
0.087421745895441
0.086300350497457
0.085149351911244
0.083973932203566
0.082777083028497
0.081559833248026
0.080322533168647
0.079065728017165
0.077790370056293
0.076497682734917
0.075188984527112
0.073865597093308
0.072528832475242
0.071180014278274
0.069820496615492
0.068451669535402
0.067074955595168
0.06569180463575
0.064303691481484
0.062912113767676
0.061518587406903
0.060124635921551
0.058731762028234
0.057341413734532
0.055954967225473
0.054574139051165
0.053200811500061
0.051836488322809
0.05048250815484
0.049140206193644
0.047810944979373
0.046496064139215
0.045196830126413
0.043914432099064
0.042650003298501
0.041404616399995
0.040179274055891
0.038974894117477
0.037792328816649
0.036632345133285
0.035495658252533
0.034382871857343
0.033294558694135
0.032231134056524
0.031193040515321
0.030180484299486
0.029193828903035
0.028233086094894
0.027298728676504
0.026390943921706
0.088340795046611
0.087183418686394
0.085988673212637
0.084768454131168
0.083528228573483
0.082268563458408
0.080988648365287
0.079688356267316
0.07836855665456
0.077030654032526
0.075676147576552
0.074306460517524
0.072922956980226
0.071527006618946
0.070120022928144
0.068703467233437
0.067278837989707
0.065847661149519
0.064411484951188
0.062971879082317
0.061530432975076
0.060088754689731
0.058648476071032
0.057211262902784
0.055778837606385
0.054352867309626
0.052934915752696
0.051526567224389
0.05012938248317
0.048744858686027
0.04737442117794
0.046019450529829
0.0446812976001
0.04336125355462
0.042060522975621
0.040780218537699
0.039521380063554
0.038284965311933
0.037071857815975
0.035882838153068
0.034718618457691
0.033579790502086
0.032466903806425
0.031380348763565
0.0303205407647
0.029287677398154
0.028282185156057
0.027304323786244
0.026355480542359
0.025438409679425
0.089636487738255
0.088421204420578
0.087157691583931
0.085868274694309
0.084562046618475
0.083238714207864
0.081895639146949
0.080531670035058
0.079147551178248
0.077744940400198
0.076325570545224
0.074890969785963
0.0734425298876
0.071981639376706
0.070509750259093
0.069028378821513
0.067539083812554
0.066043449643243
0.064543081308497
0.063039606303655
0.061534679093108
0.060029984051705
0.058527233341604
0.05702815821359
0.055534490455261
0.054047951742213
0.052570247577275
0.051103050837479
0.049647996726273
0.048206679872498
0.046780657329329
0.045371436358433
0.043980453388583
0.042609055500435
0.041258507684611
0.039929989759492
0.038624606053927
0.037343359340666
0.03608717634761
0.034856865468256
0.033653184189553
0.032476744270161
0.031328156755923
0.030207826940115
0.029116278682341
0.028053742404812
0.027020908365837
0.026018290482006
0.025048370129677
0.024116364453345
0.091277533519505
0.089985624565874
0.088631276864908
0.087251034001424
0.085858740526951
0.084452784506517
0.083027998817143
0.081581861273678
0.080114977846075
0.078629365998017
0.07712707289854
0.075609755636856
0.074078827031425
0.072535684476636
0.070981815014227
0.069418791534941
0.067848235956406
0.066271794663237
0.064691132773245
0.063107938070355
0.061523927529959
0.059940849331827
0.058360477586976
0.056784600996255
0.055215009282449
0.053653487736596
0.052101816395015
0.050561755933133
0.049035037626839
0.047523357270521
0.046028361859267
0.044551625333736
0.043094642174123
0.041658823656256
0.040245506800865
0.038855934732912
0.037491271391478
0.036152567637494
0.034840808105181
0.033556839536616
0.032301477868879
0.031075349759727
0.029879130375719
0.028713202238932
0.027578182675957
0.02647424536743
0.025402355754811
0.024363303852635
0.02336134909273
0.022406027334539
0.093242037211329
0.091856531678125
0.090390693158563
0.088899363760282
0.087402301617211
0.085896064511466
0.084372224238401
0.082826546547872
0.081259503980976
0.079673594972968
0.07807127187321
0.076454351030409
0.074824263604058
0.073182410090492
0.071530314570279
0.069869612094631
0.068201991405585
0.066529159827666
0.064852835591661
0.063174754602568
0.061496679157187
0.059820402983007
0.05814775036031
0.056480568674877
0.054820721892143
0.053170077955966
0.051530510642451
0.049903880596116
0.048292024747133
0.046696729912446
0.045119719481158
0.043562652019156
0.042027124935309
0.040514647945427
0.039026644198019
0.037564429319929
0.036129246093841
0.034722208645959
0.033344373281489
0.031996622225886
0.030679840628191
0.029394656739159
0.028141835525663
0.026921705280847
0.025735050696884
0.024581935772341
0.023463811402697
0.022381639655595
0.021341934916618
0.020358447464028
0.095515669082277
0.094021074095965
0.092424146230112
0.090802539531741
0.0891831495605
0.08756008243303
0.085920829417101
0.084259088636251
0.082575222848847
0.080872350144909
0.079153426358984
0.077420461097834
0.075674908360521
0.073918178203259
0.072151848220841
0.070377635806415
0.068597311670744
0.066812650519519
0.065025423512723
0.063237410300727
0.061450415653371
0.059666282204945
0.057886895565889
0.056114181871888
0.054350102374406
0.052596619159126
0.050855690150916
0.049129268110911
0.047419279562454
0.045727603671051
0.044056068270212
0.042406436675483
0.040780402042139
0.039179556731822
0.037605407988648
0.036059343185627
0.034542679195022
0.033056576839636
0.031602159917626
0.030180332800799
0.028792060256486
0.027437949741223
0.026118882638141
0.02483508538562
0.023587572540535
0.022376194527805
0.021203051876663
0.020069177717494
0.018984164749736
0.01796715503797
0.098089243170352
0.096471156544428
0.094724168501049
0.092953758667338
0.091195283934599
0.089439697349447
0.087669479712944
0.085875842590923
0.084059073954329
0.082223095832626
0.080371487901727
0.078506474910875
0.076629518279845
0.074742035937566
0.072845677077717
0.07094226617472
0.069033680258446
0.067121784173385
0.065208422342404
0.063295436344691
0.061384689120684
0.0594780840831
0.057577573170355
0.055685152005994
0.053802848865935
0.051932704148292
0.050076775716158
0.048237116236863
0.046415760174164
0.044614703586074
0.042835891579869
0.041081193808412
0.039352410216764
0.037651237819376
0.035979293916037
0.034338053953449
0.032728931621151
0.031153151799494
0.029611941507071
0.028106239167006
0.026637132761546
0.025205200755292
0.02381150794148
0.022456137595303
0.021140459380126
0.01986401034565
0.018629819429418
0.017438821103261
0.016304470273087
0.015251540141187
0.10095758596491
0.099202717690934
0.09728745719268
0.095350473300922
0.093436875549281
0.091533717878353
0.089617550226138
0.087676655274409
0.085711258390622
0.08372630071393
0.081726143723101
0.079713249157128
0.077689056650272
0.075654988295544
0.073612788257412
0.071564416213731
0.069511880104275
0.06745715802252
0.06540219013157
0.063348899046959
0.061299219458853
0.059255123503204
0.057218633874088
0.055191823491114
0.05317680975805
0.051175735437832
0.04919077636651
0.047224112634418
0.045277912254932
0.043354305023706
0.041455372025831
0.039583116075515
0.037739473376198
0.035926264976703
0.034145234864552
0.032397959318459
0.030685970550612
0.029010565754819
0.027373094723534
0.025774521142056
0.024216083533874
0.02269830133051
0.021222477776017
0.019788474019937
0.01839813462287
0.017050494511642
0.015749806919702
0.014496553010867
0.013309070289875
0.012218048515267
0.10411867092538
0.10221325473235
0.1001118070539
0.097991499333064
0.095907859184794
0.093842907235259
0.091766313120121
0.089663115310324
0.087533584263281
0.085383915899447
0.083219402294331
0.081042763768875
0.078855397401522
0.076658736972504
0.074454657577868
0.072245293125381
0.070032815317715
0.06781934387874
0.06560693946047
0.063397627684041
0.061193435384644
0.058996424026038
0.056808710464795
0.054632472218424
0.052469946663612
0.050323400454501
0.048195145886338
0.046087511040202
0.044002818806857
0.041943354321015
0.039911357494726
0.037908986017916
0.035938334778466
0.03400136795343
0.032099980118107
0.030235866927494
0.028410706725646
0.026625880575996
0.024882894165647
0.023182737684336
0.021526851729244
0.019915674320591
0.018350835757572
0.016831892873967
0.015361342980055
0.013937505998852
0.012566277034911
0.011247245227082
0.01000486411416
0.0088756567220127
0.1075736266402
0.10550362477747
0.10319715705313
0.10087704365892
0.098609443610508
0.096369416193202
0.094118487635301
0.091838244178547
0.089529302252624
0.087199397643653
0.084854853169464
0.082498641672766
0.0801321072862
0.077756712868515
0.075374501625317
0.072987826518419
0.070599066365708
0.068210521766995
0.065824410379658
0.063442894941424
0.061068126360047
0.058702286025006
0.056347614635537
0.054006421464291
0.051681085475284
0.049374024314364
0.047087718413116
0.044824671114736
0.042587389420036
0.040378347263885
0.038199979350854
0.036054631408684
0.033944591416757
0.031871999960255
0.029838942287397
0.027847264082797
0.025898831627676
0.023995129699872
0.022137869752392
0.020328069557109
0.018567440093089
0.016856300089044
0.015196719893781
0.013587835028352
0.012033019232016
0.010529588414293
0.0090855835456016
0.0076990790375574
0.0064020515835196
0.0052363540352723
0.11131899048507
0.10907416503643
0.10654554956235
0.10400940358479
0.10154432069334
0.099116655636512
0.096678072983162
0.094206381705012
0.09170296928761
0.08917745095203
0.086637259868099
0.084085607748618
0.081523782662175
0.078953298770024
0.076376409876277
0.073795739487932
0.071213924705963
0.068633494909027
0.066056870773122
0.063486397588577
0.06092439387409
0.058373200664034
0.055835217816938
0.053312919543526
0.050808861437324
0.048325648026831
0.045865966645395
0.043432539731852
0.041028102361954
0.038655359553111
0.03631698535632
0.034015559491362
0.031753610499485
0.029533498292726
0.027357544917215
0.025227781340208
0.023146309074805
0.021114738569677
0.019135043323717
0.017208267763377
0.015336473925103
0.013519816070104
0.011760941945803
0.010058426036306
0.008416789759076
0.0068319883681711
0.0053148177963459
0.0038610257153348
0.0025117635438877
0.001313224515844
0.11535222293833
0.11292399778199
0.11015702216518
0.10739007766508
0.10471526411331
0.10208815848966
0.099449113938755
0.096772019053421
0.094059446967285
0.091323193067516
0.088571875678853
0.085808934814557
0.083035603997733
0.080253480660995
0.077465083208536
0.07467336977204
0.071881296411584
0.069091674946729
0.066307180825349
0.063530394193706
0.060763853386964
0.058010110222074
0.055271774408123
0.052551535712422
0.049852177437421
0.047176540633753
0.044527571281614
0.04190826110216
0.039321625256352
0.03677065444668
0.034258317192772
0.031787479731737
0.029360964719888
0.026981402768594
0.024651408432804
0.022373245113453
0.020149308909242
0.017981370786664
0.015871737069246
0.013821489322073
0.01183313706758
0.0099066333329754
0.0080453551640078
0.0062471792092556
0.0045180646931155
0.0028522171222334
0.0012638599357056
-0.0002545942810058
-0.0016509485098919
-0.0028763624218871
0.11967257498326
0.11705267436217
0.1140282324723
0.11101758524704
0.10812349606515
0.10528689084512
0.10243546910346
0.099539559143207
0.096603593018139
0.093641866066297
0.090664208576671
0.087674254364835
0.084673187145435
0.081662734883366
0.078645752370113
0.075625607768043
0.072605645179906
0.069589022613112
0.066578732566011
0.063577653945564
0.060588609848006
0.057614427304307
0.054657989571394
0.051722265321436
0.048810330691248
0.045925325107574
0.043070515984234
0.040249230596653
0.037464831868289
0.0347206614559
0.03202004747577
0.029366209605169
0.026762334408341
0.024211390235028
0.021716352404757
0.019279777334139
0.016904426134161
0.014592279860741
0.012346056255363
0.010166897436785
0.0080578586892022
0.0060186720753813
0.0040535767769104
0.0021596635050695
0.00034454684558627
-0.0013995837240586
-0.0030545361445797
-0.0046321422193173
-0.0060673765293065
-0.0073110638413451
0.12426780343357
0.12145168281069
0.11815869301778
0.11489257533109
0.11176982840792
0.10871473279538
0.105640064073
0.10251268914301
0.099339731828542
0.096138363657037
0.092919599094252
0.089687178092935
0.08644223664821
0.083186707258375
0.079923876620416
0.076657615618798
0.073391738791406
0.070129825830793
0.066875262569106
0.063631304643809
0.060401137937336
0.057187942231235
0.053994951355027
0.050825489602433
0.047683002108965
0.044571004034156
0.041493164842195
0.038453227110396
0.035454980526027
0.032502199570765
0.029598656336666
0.026748009884031
0.023953894527873
0.021219698138424
0.018548836804992
0.015944239264345
0.013409111557641
0.010945713227471
0.0085572578791325
0.0062449914141403
0.0040126166766833
0.0018596440490673
-0.00020870997364869
-0.0021961790354474
-0.0040934213023288
-0.0059103033325699
-0.0076246460505688
-0.0092527331511688
-0.0107159225573
-0.011965682483882
0.12912870478946
0.1261122514384
0.12253981877601
0.11901153590793
0.11565406727281
0.11237242659587
0.10906441825512
0.10569393321385
0.10227130655095
0.098816879036355
0.095342835868706
0.091852928148366
0.088348237738085
0.084830984298935
0.081304998590202
0.077774755034835
0.074244627222215
0.070718706930012
0.067200869627926
0.063694847445839
0.060204287511148
0.056732817218122
0.053284112972714
0.049861945504793
0.046470223745026
0.043112927830779
0.039794222658153
0.036518365203407
0.033289672597173
0.030112457019978
0.026991034263827
0.023929606093066
0.020932350012269
0.018003179544793
0.015146044075648
0.01236434879248
0.0096618275827519
0.0070411162773216
0.0045060078542497
0.0020579213688843
-0.00029867509283967
-0.002564507850219
-0.0047331816073556
-0.006809399134964
-0.0087818458642865
-0.010662626500621
-0.012425670022798
-0.01409177218683
-0.015569902566879
-0.016811850678613
0.13424005880097
0.13102175934891
0.12716266315607
0.12336793783136
0.11977222005776
0.11625820241397
0.11270818686528
0.10908413236405
0.10540038080594
0.101680558556
0.097937885758635
0.094176047083745
0.090396113576575
0.086600714120018
0.082794356400379
0.078982227938929
0.075169352653522
0.071360426698832
0.067559919816143
0.063772153355542
0.060001350840325
0.056251702654417
0.052527441250705
0.048832894911145
0.045172548120449
0.041550957254271
0.037972897328534
0.034443261061812
0.030967014401638
0.027549135090564
0.024194601284224
0.020908287000712
0.017695024709217
0.014559389573544
0.011505962464874
0.0085387706215927
0.0056621480825295
0.0028792568479515
0.00019451932799725
-0.0023903353890582
-0.004869984394114
-0.0072453834652271
-0.0095086446073086
-0.011665838073318
-0.013702832104836
-0.01563505472189
-0.017431125734028
-0.019118386916706
-0.020593716763738
-0.021815281773027
0.13958259105001
0.13616413159824
0.13201434556312
0.12795221324883
0.12411762859062
0.12036750604243
0.11656848352507
0.1126819999776
0.10872724452036
0.10473111288687
0.10070760045241
0.096660236375928
0.092590180254204
0.088500626727262
0.084396899175247
0.080285014388484
0.076170762001179
0.072059569448683
0.067956633955024
0.063866998784549
0.059795593211394
0.055747298149805
0.051727032223891
0.047739804318018
0.043790822210281
0.039885322162831
0.036028821341267
0.032226998293317
0.028485620838721
0.024810486774264
0.021207378575536
0.017681995339965
0.014239955093665
0.010886662003178
0.0076274399957976
0.0044671320513289
0.0014107269049425
-0.0015378503404097
-0.0043735858630264
-0.0070941308468609
-0.0096934208785949
-0.012172333349989
-0.014521467124663
-0.016748362644283
-0.018835337461528
-0.020802535176738
-0.022611226050955
-0.024299194707228
-0.025748464539608
-0.026933651524833
0.14513144531664
0.14151826835533
0.13707856578933
0.13275217063013
0.12868092721983
0.12469295362025
0.1206396991513
0.11648378963351
0.11225005524782
0.10796840348262