/*--------------------------------*- C++ -*----------------------------------*\
| =========                 |                                                 |
| \\      /  F ield         | OpenFOAM: The Open Source CFD Toolbox           |
|  \\    /   O peration     | Version:  2112                                  |
|   \\  /    A nd           | Website:  www.openfoam.com                      |
|    \\/     M anipulation  |                                                 |
\*---------------------------------------------------------------------------*/
FoamFile
{
    version     2.0;
    format      ascii;
    arch        "LSB;label=32;scalar=64";
    class       surfaceScalarField;
    location    "10.4";
    object      phi;
}
// * * * * * * * * * * * * * * * * * * * * * * * * * * * * * * * * * * * * * //

dimensions      [0 3 -1 0 0 0 0];

oriented        oriented;

internalField   nonuniform List<scalar> 
43645
(
0.39512365438753
-4.7812712325352e-06
0.39513805377104
-1.4399321342447e-05
0.3951621011581
-2.4047319856482e-05
0.39519577607167
-3.3674844151535e-05
0.3952390589691
-4.3282827717473e-05
0.39529192494818
-5.2865910048758e-05
0.39535433264693
-6.2407631014571e-05
0.39542622175748
-7.1889044273746e-05
0.39550751181097
-8.1289988903244e-05
0.39559810719301
-9.0595319063615e-05
0.39569789576113
-9.978850689877e-05
0.39580675694563
-0.00010886112490571
0.39592455289235
-0.00011779588885153
0.3960511420248
-0.00012658907612729
0.39618635763963
-0.00013521556016527
0.39633004076749
-0.00014368307459786
0.39648199169982
-0.00015195088056321
0.39664204230094
-0.00016005055057185
0.39680993878848
-0.0001678964382729
0.39698550561998
-0.00017556678319845
0.39716837971723
-0.00018287404999136
0.39735840097918
-0.0001900212154066
0.39755501503678
-0.00019661401184163
0.39775818670909
-0.00020317162700715
0.39796702942391
-0.00020884267008119
0.39818190307088
-0.00021487360245281
0.39840125083866
-0.00021934772361756
0.39862640451848
-0.00022515363628483
0.39885430931627
-0.00022790475534378
-0.00023419579475386
0.39908850515406
0.37294705058472
-9.2770211724809e-06
0.37296070285275
-2.8051488483869e-05
0.37298365225772
-4.6996622154527e-05
0.3730158852263
-6.5907710177694e-05
0.37305737739437
-8.4774894579329e-05
0.37310810233376
-0.0001035907500166
0.37316802374882
-0.00012232894878892
0.37323709153056
-0.00014095673085717
0.37331523785848
-0.00015943622399008
0.37340237970623
-0.00017773707617087
0.37349841635405
-0.00019582506645275
0.37360323770733
-0.00021368239208353
0.37371671672703
-0.0002312748247877
0.37383872371552
-0.00024859598291613
0.37396910511482
-0.00026559687995901
0.37410771513365
-0.00028229301576985
0.37425436656074
-0.00029860223195805
0.37440890187983
-0.00031458579551617
0.37457107712836
-0.00033007161429693
0.37474072567371
-0.00034521525726813
0.37491749536077
-0.00035964366706958
0.37510123746432
-0.00037376324984151
0.37529141365753
-0.00038679013691822
0.37548800290654
-0.00039976080841537
0.37569014061943
-0.00041098031606228
0.37589819931848
-0.00042293223484216
0.37611065393543
-0.00043180227436327
0.37632884289514
-0.00044334253072209
0.37654977039229
-0.00044883218967867
-0.00046142000341771
0.37677699466538
0.35201537453285
-1.375392884505e-05
0.35202890503763
-4.1581887598429e-05
0.35205157076557
-6.9662244157753e-05
0.35208335375795
-9.769059779162e-05
0.35212422101741
-0.00012564205139563
0.35217413896153
-0.00015350859379753
0.35223307123964
-0.00018126112916581
0.35230097606392
-0.0002088614598911
0.35237779918777
-0.00023625925532018
0.35246347216705
-0.00026340996543414
0.3525579067995
-0.00029025961164359
0.35266100402009
-0.00031677952786182
0.35277264747641
-0.00034291819898385
0.35289272056556
-0.00036866899220785
0.35302108319293
-0.00039395942993988
0.35315760444117
-0.00041881418860389
0.35330210664505
-0.00044310436255857
0.35345444231363
-0.00046692139240332
0.35361436784653
-0.00048999707723775
0.35378172596844
-0.00051257331035613
0.35395615993729
-0.00053407756840431
0.35413754307252
-0.00055514631824745
0.35432532665104
-0.00057457364951018
0.35451953572087
-0.00059396981259215
0.35471926892612
-0.00061071345618974
0.35492498381812
-0.00062864706164133
0.35513504512976
-0.0006418635210142
0.35535095706559
-0.00065925440212341
0.35556944642038
-0.00066732148239993
-0.00068637636938781
0.35579440285069
0.33225850599603
-1.8215875991068e-05
0.33227200083667
-5.5076634196926e-05
0.33229461048251
-9.227179554115e-05
0.33232630151419
-0.00012938153594702
0.33236702143858
-0.0001663618840804
0.33241672512895
-0.00020321219442503
0.33247537633369
-0.00023991224648404
0.33254294397921
-0.00027642902016279
0.33261939052184
-0.0003127057151625
0.33270466514553
-0.00034868450857586
0.33279869449997
-0.00038428888804643
0.33290139259142
-0.00041947754348076
0.33301265563385
-0.00045418116802221
0.33313238288878
-0.00048839617579732
0.33326045028287
-0.00052202675493655
0.3333967449918
-0.00055510883019441
0.333541099663
-0.00058745896836088
0.3336933782094
-0.00061919987479188
0.3338533340207
-0.00064995282608966
0.33402081986171
-0.000680059089882
0.33419546731096
-0.00070872495735332
0.33437717649932
-0.00073685544685584
0.33456537633078
-0.00076277342202365
0.33476015265689
-0.00078874607994305
0.33496054298856
-0.00081110372957018
0.33516712573209
-0.0008352297467537
0.33537810418165
-0.00085284191236437
0.33559523707365
-0.00087638723641819
0.33581487218815
-0.00088695654135876
-0.00091297657045577
0.33604147244704
0.31361053052537
-2.2688941107933e-05
0.31362407125643
-6.8617280619387e-05
0.31364676862592
-0.00011496908032106
0.31367857728678
-0.00016119011319703
0.31371942411568
-0.00020720863125626
0.31376925097159
-0.0002530389706093
0.31382802230606
-0.00029868350355902
0.313895720601
-0.00034412723990765
0.31397232901565
-0.00038931405708122
0.31405781849981
-0.00043417392222417
0.31415213415865
-0.00047860447888615
0.31425520642374
-0.00052254974272705
0.31436694728892
-0.00056592196975829
0.31448727575694
-0.00060872458230613
0.31461608753013
-0.00065083846878048
0.31475329231202
-0.000692313554357
0.31489873591096
-0.00073290251136291
0.31505229737749
-0.00077276128658663
0.31521372745724
-0.000811382852482
0.31538289273763
-0.00084922431767049
0.31555941078179
-0.0008852429498512
0.31574321548921
-0.00092066010292763
0.31593370685057
-0.00095326473256689
0.31613104608305
-0.00098608526150128
0.31633419256095
-0.0010142501567374
0.31654387560281
-0.0010449127374254
0.31675809421396
-0.0010670604722182
0.31697892356053
-0.0010972165317835
0.31720222703939
-0.0011102599706818
-0.001143917205678
0.31743316772684
0.29600919563944
-2.7182646252103e-05
0.29602281322098
-8.2234783957789e-05
0.29604565164899
-0.00013780743016547
0.29607765471534
-0.00019319310241079
0.29611872891483
-0.00024828275533564
0.29616880372554
-0.00030311370768678
0.29622784611501
-0.00035772582150045
0.29629585533988
-0.00041213639519331
0.29637283943798
-0.00046629808784023
0.29645879565991
-0.00052013007880211
0.29655369193177
-0.0005735006877006
0.29665747946417
-0.00062633721402431
0.29677009039621
-0.00067853284292517
0.2968914684648
-0.00073010259380385
0.29702153412357
-0.00078090407246785
0.29716022520407
-0.00083100458126568
0.29730740507407
-0.0008800823294796
0.2974629730953
-0.0009283292570558
0.297626679914
-0.00097508962174764
0.29779841126209
-0.0010209556170421
0.29797777116966
-0.0010646028096614
0.2981647351319
-0.0011076240177178
0.29835867123374
-0.0011472007875558
0.29855982947892
-0.0011872434597604
0.29876707902352
-0.0012214996547037
0.29898132455189
-0.0012591582187884
0.29920032706676
-0.0012860629400994
0.2994265278524
-0.0013234172706162
0.2996552264153
-0.0013389584883758
-0.0013810828333635
0.29989239209087
0.27939574240495
-3.1690464883392e-05
0.27940941976143
-9.5912070764499e-05
0.2794323727198
-0.00016076031907728
0.2794645353132
-0.0002253556273692
0.27950579452726
-0.00028954190260949
0.27955606892824
-0.00035338804352856
0.27961533039694
-0.00041698722705748
0.27968359833296
-0.0004804042698487
0.27976090973985
-0.00054360943549287
0.27984729268144
-0.00060651296298862
0.2799427425312
-0.00066895048220959
0.28004723612539
-0.00073083075474637
0.28016073076452
-0.00079202743066003
0.28028320053778
-0.00085257231726689
0.28041459637232
-0.00091229985908375
0.28055489061372
-0.00097129877605053
0.28070396986054
-0.0010291615312544
0.28086176031264
-0.0010861196650613
0.28102801719674
-0.0011413464629449
0.28120265237682
-0.0011955907547818
0.28138525958979
-0.0012472099810997
0.28157586492437
-0.0012982293109176
0.28177380500792
-0.0013451408301914
0.2819794319893
-0.0013928704000087
0.28219151819521
-0.0014335858196241
0.28241116615572
-0.0014788061377997
0.28263587606153
-0.0015107728042962
0.2828684985672
-0.0015560397346556
0.28310371148822
-0.0015741713690589
-0.0016257535373349
0.28334838223536
0.26371471236445
-3.619331894815e-05
0.26372839406832
-0.00010959371124956
0.26375137086981
-0.00018373705739914
0.26378356869856
-0.0002575533938044
0.26382485658427
-0.00033082972743127
0.26387514410489
-0.00040367550462602
0.2639344105801
-0.00047625364444941
0.26400269873429
-0.00054869236770827
0.26408007830011
-0.00062098894681227
0.26416661240612
-0.00069304701606397
0.26426232848798
-0.00076466651302744
0.26436723403738
-0.00083573625464713
0.26448131688751
-0.00090611023313547
0.26460458743588
-0.00097584281940249
0.26473703329855
-0.0010447456772273
0.26487866824267
-0.0011129336768189
0.26502940880065
-0.0011799020473408
0.26518921562656
-0.0012459264499765
0.26535785515389
-0.0013099859504384
0.26553527387148
-0.0013730094330931
0.26572106121372
-0.0014329972849077
0.26591530405524
-0.00149247211424
0.26611731156392
-0.0015471483012198
0.26632755149625
-0.0016031102946224
0.26654469810615
-0.0016507323920907
0.26677007219576
-0.001704180189664
0.26700090004724
-0.001741600618127
0.2672404777333
-0.0017956173832143
0.26748282216656
-0.0018165157661293
-0.0018786999369363
0.26773576860498
0.2489137621539
-4.0662729462179e-05
0.24892736350917
-0.00012319501048929
0.24895022429371
-0.00020659778613147
0.24898226439953
-0.00028959344456762
0.24902333707455
-0.00037190234863376
0.24907334518509
-0.00045368356250129
0.24913227796105
-0.00053518636922524
0.2492002042038
-0.00061661856053856
0.24927722956372
-0.00069801425841217
0.24936345592638
-0.00077927333171785
0.24945894707941
-0.00086015762071064
0.24956374598347
-0.00094053511466807
0.24967787635451
-0.0010202405617738
0.24980139073541
-0.001099357159096
0.24993431976273
-0.0011776746648579
0.25007672556467
-0.0012553394400621
0.25022856199644
-0.0013317384417273
0.25038983231608
-0.0014071967329716
0.25056032250436
-0.0014804761031197
0.25074002303168
-0.0015527099252677
0.25092852783531
-0.0016215020541509
0.25112599536533
-0.0016899396100449
0.2513317155378
-0.0017528684399623
0.25154628465313
-0.0018176793761207
0.2517682836399
-0.0018727313452979
0.25199926853272
-0.0019351650486024
0.25223618726616
-0.0019785193178025
0.25248280807643
-0.0020422381598479
0.25273246737312
-0.0020661750303526
-0.0021402506736663
0.2529940181449
0.23494348858509
-4.5063706491552e-05
0.23495690421026
-0.00013661058518376
0.23497947449907
-0.00022916802463631
0.23501111556282
-0.00032123445857987
0.23505166743718
-0.0004124541742701
0.23510102868571
-0.000503044763201
0.23515920064862
-0.00059335828549753
0.23522628027251
-0.00068369813876745
0.23530241148106
-0.0007741454226259
0.23538773770089
-0.00086459950825312
0.23548236272019
-0.00095478259812258
0.23558636910264
-0.0010445414562904
0.23569982145083
-0.0011336928705393
0.23582281960442
-0.0012223552742551
0.23595544339853
-0.0013102984218784
0.23609780958217
-0.0013977055874638
0.2362499172665
-0.0014838460910115
0.23641181997431
-0.0015690994064069
0.23658333346304
-0.0016519895584666
0.23676450069089
-0.0017338771201774
0.23695493260027
-0.0018119339313778
0.23715486752377
-0.0018898745016053
0.23736359093104
-0.0019615918158684
0.23758183593492
-0.0020359243486384
0.23780810637707
-0.0020990017564852
0.23804420536183
-0.0021712640022647
0.23828681186368
-0.0022211257888421
0.23854018338065
-0.0022956096462896
0.23879696839856
-0.0023229600189376
-0.0024103351544775
0.23906705291105
0.22175726369228
-4.9357566087825e-05
0.22177037589773
-0.00014972274574025
0.22179246062313
-0.00025125270525708
0.2218234324212
-0.0003522062122932
0.2218631208699
-0.00045214257942414
0.22191142256948
-0.00055134641991754
0.22196835270452
-0.0006502883786323
0.22203403754343
-0.00074938293652641
0.22210866058299
-0.00084876842211421
0.22219240836457
-0.00094834725056659
0.22228542739978
-0.0010478015952239
0.22238784283505
-0.0011469568542846
0.22249976456289
-0.0012456145622855
0.22262134348541
-0.0013439341614845
0.22275271460321
-0.0014416695055289
0.22289405380018
-0.0015390447509929
0.22304541427605
-0.0016352065344739
0.22320690524582
-0.0017305903443313
0.22337838575076
-0.0018234700324575
0.22355995552439
-0.0019154468632425
0.2237512627876
-0.0020032411647404
0.22395262379587
-0.0020912354802192
0.22416335073167
-0.0021723187225749
0.22438429871839
-0.002256872306291
0.22461394133493
-0.002328644344369
0.22485430397771
-0.0024116266163
0.22510185610046
-0.0024686778831956
0.22536133042529
-0.0025550839430491
0.22562474295971
-0.0025863725264354
-0.0026885654817446
0.22590297331614
0.20931107888366
-5.3504461258804e-05
0.20932376542427
-0.00016240924578065
0.20934516211577
-0.00027264935620672
0.20937518388366
-0.00038222793989653
0.20941365248894
-0.00049061114504493
0.20946046461313
-0.00059815850492277
0.20951565035679
-0.00070547408384817
0.20957936549317
-0.00081309803498604
0.20965183313568
-0.00092123602755584
0.20973328318113
-0.001029797259538
0.20982390631449
-0.0011384246930398
0.20992387188358
-0.0012469223884642
0.21003333841579
-0.0013550810605734
0.21015250992996
-0.0014631056423608
0.21028158192401
-0.0015707414672616
0.21042079157225
-0.0016782543675001
0.2105702557145
-0.0017846706459057
0.21073014116001
-0.0018904757595358
0.2109003678509
-0.0019936966938654
0.21108108889942
-0.0020961678826567
0.21127202365845
-0.002194175895374
0.21147354107374
-0.00229275286735
0.21168505513394
-0.0023838327552049
0.21190745239367
-0.0024792695385528
0.21213935300294
-0.0025605449266608
0.21238277012157
-0.0026550437079668
0.21263430248424
-0.0027202102193388
0.21289877504825
-0.0028195564809632
0.21316805623887
-0.0028556536920977
-0.0029742302421161
0.21345372102627
0.1975633978494
-5.7465745879279e-05
0.19757553880159
-0.00017455016117874
0.19759604934001
-0.0002931598577646
0.19762484614316
-0.00041102470633716
0.19766174546772
-0.00052751043336496
0.19770664571448
-0.00064305871574746
0.19775959219845
-0.00075842053245332
0.19782076934883
-0.00087427515035709
0.19789043847944
-0.00099090512381526
0.19796887181785
-0.0011082305640128
0.19805630387348
-0.001225856715482
0.19815294883149
-0.001343567313751
0.198259014926
-0.0014611471231694
0.19837476074651
-0.0015788514314352
0.19850044460024
-0.0016964252903692
0.19863636717818
-0.0018141769152972
0.19878271468246
-0.0019310181208502
0.19893971539898
-0.0020474764471521
0.19910736155107
-0.0021613428178076
0.19928586420479
-0.0022746705085936
0.19947503179767
-0.0023833434611381
0.19967528791034
-0.0024930089531684
0.19988617571831
-0.0025947205368933
0.20010860224899
-0.0027016960431057
0.2003413995789
-0.0027933422309336
0.20058646563846
-0.0029001097419694
0.20084081103708
-0.0029745555928527
0.20110880262339
-0.0030875480426226
0.20138321595114
-0.0031300669962975
-0.0032663214597477
0.20167530719433
0.18647501799101
-6.1206334912112e-05
0.18648650187016
-0.00018603400635463
0.18650594305787
-0.00031260101133006
0.1865332599103
-0.00043834152467453
0.18656826519914
-0.00056251568844975
0.18661086035536
-0.00068565383841531
0.18666110550676
-0.00080866565073444
0.18671921182948
-0.00093238144020742
0.18678547607171
-0.0010571693336882
0.18686021033416
-0.0011829647944041
0.18694369092807
-0.0013093372779252
0.18703617614062
-0.0014360524951769
0.1871379228124
-0.0015628937644792
0.18724924452127
-0.0016901731101977
0.18737046141852
-0.0018176421582027
0.18750194008429
-0.0019456555520479
0.18764393654524
-0.0020730145534847
0.18779674764905
-0.0022002875230471
0.18796044000846
-0.0023250351500168
0.18813529721086
-0.0024495276841617
0.18832121562053
-0.0025692618446457
0.18851870295161
-0.0026904962584088
0.18872741062122
-0.0028034281812509
0.18894834105612
-0.0029226264529826
0.18918045225359
-0.0030254534038875
0.18942571803385
-0.0031453754978715
0.1896813508297
-0.0032301883647974
0.1899515905463
-0.0033577877358032
0.19022973140087
-0.0034082078284697
-0.0035633044749711
0.19052671444046
0.17600893830627
-6.4695851346506e-05
0.17601966954226
-0.00019676521050369
0.17603788161292
-0.00033081304991008
0.17606349483045
-0.00046395471010595
0.17609632032822
-0.00059534115439327
0.17613626344947
-0.00072559692799506
0.17618339816073
-0.00085580033070921
0.17623795952849
-0.0009869427768895
0.17630027583088
-0.001119485605456
0.17637069516633
-0.0012533840994701
0.1764495323053
-0.0013881743870194
0.17653708700744
-0.0015236071677067
0.17663366224332
-0.0016594689712867
0.17673962450384
-0.0017961353419227
0.17685535343614
-0.0019333710622937
0.17698128087168
-0.0020715829596984
0.17711773182882
-0.0022094654833633
0.17726507550896
-0.0023476311763023
0.17742345432487
-0.002483413939707
0.17759323457979
-0.0026193079132731
0.17777440157016
-0.0027504288098771
0.17796756539194
-0.0028836600554304
0.17817248164998
-0.0030083444151611
0.17839028041181
-0.0031404251909822
0.17862002279149
-0.0032551957602531
0.17886383989594
-0.0033891925792155
0.17911901396685
-0.0034853624130293
0.17938996972951
-0.0036287434762332
0.17967002492024
-0.0036882629978571
-0.0038637688947718
0.17997048936339
0.16613023561664
-6.7909459640368e-05
0.16614013816343
-0.00020666772689667
0.16615699043804
-0.00034766529387428
0.16618071570512
-0.0004876799465436
0.16621112523561
-0.00062575065454013
0.16624812867712
-0.00076260033935936
0.16629181204276
-0.00089948366664707
0.16634243063445
-0.0010375613391574
0.16640033956586
-0.0011773945079492
0.16646591794581
-0.0013189624507955
0.16653951433481
-0.0014617707478935
0.16662146577067
-0.0016055585756925
0.16671211736881
-0.0017501205420384
0.16681188428616
-0.0018959022321144
0.16692120171136
-0.0020426884608414
0.16704056305804
-0.0021909442799954
0.16717036039118
-0.0023392627906842
0.1673110346162
-0.0024883053758704
0.16746280587629
-0.0026351851749974
0.16762612622979
-0.0027826282424309
0.16780107541913
-0.0029253779755765
0.16798837087886
-0.0030709554920049
0.16818788170185
-0.0032078552156757
0.16840086867214
-0.0033534121391882
0.1686265155004
-0.003480842566987
0.1688671081117
-0.003629785169241
0.1691200430072
-0.0037382972876233
0.16938992765839
-0.0038986281068829
0.16967014143289
-0.0039684767524708
-0.0041659151666187
0.16997228772674
0.15680594829123
-7.0829033490896e-05
0.15681496599262
-0.00021568539883582
0.15683035987232
-0.00036305914396978
0.15685205682136
-0.00050937686613375
0.1568798698634
-0.00065356366761074
0.15691371306546
-0.00079644351287221
0.15695368230517
-0.00093945287847883
0.1570000487209
-0.0010839277275311
0.15705318852858
-0.001230534288988
0.15711350587073
-0.0013792797667747
0.15718137767748
-0.00152964252909
0.15725717281366
-0.0016813536866534
0.15734127308843
-0.001834220792091
0.15743413637024
-0.0019887654894346
0.15753624754946
-0.0021447996160253
0.15764815582809
-0.0023028525348313
0.15777031596641
-0.002461422905719
0.15790323741226
-0.0026212267988121
0.158047217097
-0.0027791648374658
0.15820279286511
-0.0029382039887953
0.15837014172145
-0.0030927268109236
0.15855009036039
-0.0032509041105508
0.15874262956211
-0.0034003943977616
0.15894915198318
-0.0035599345411388
0.15916897954088
-0.0037006701061739
0.15940454672061
-0.0038653523307367
0.15965339973595
-0.003987150285025
0.15992031219415
-0.0041655405473126
0.1601988209955
-0.0042469855363377
-0.0044677879957447
0.16050069384444
0.14800496514257
-7.3443219031913e-05
0.14801306202937
-0.00022378225641124
0.14802693224188
-0.00037692932730476
0.14804650660399
-0.00052895119964104
0.1480716011485
-0.00067865818442918
0.14810213410629
-0.00082697644388022
0.1481382087316
-0.00097552747814892
0.148180107253
-0.0011258262242913
0.14822822104706
-0.0012786480595261
0.14828297258208
-0.0014340312791237
0.14834476079766
-0.0015914307228651
0.14841397976036
-0.0017505726280825
0.14849104185114
-0.0019112828621866
0.14857643986364
-0.0020741634815465
0.14867070126214
-0.0022390609945537
0.14877442304142
-0.0024065742943901
0.14888811659875
-0.0025751164438046
0.14901235425803
-0.0027454644392209
0.14914750607841
-0.0029143166396277
0.14929419286143
-0.0030848907541852
0.14945268684519
-0.0032512207778823
0.14962392378471
-0.0034221410340115
0.14980801727288
-0.0035844878707407
0.15000649935851
-0.0037584166122545
0.15021883751522
-0.0039130082490328
0.15044762513729
-0.0040941399392886
0.15069056068821
-0.0042300858226016
0.15095257110815
-0.0044275509538001
0.15122740592536
-0.004521820339808
-0.0047673005504124
0.15152691849641
0.13969792106264
-7.5746993685011e-05
0.13970508062937
-0.00023094179233837
0.13971739460982
-0.00038924327723657
0.13973479783615
-0.00054635439669806
0.13975711018135
-0.00070097050206893
0.13978425335447
-0.00085411959119337
0.13981633530226
-0.0010076094020733
0.13985364430113
-0.0011631352010513
0.1398965808584
-0.0013215845964504
0.1399455787166
-0.0014830291183613
0.14000105268467
-0.0016469046732229
0.14006341442986
-0.0018129343564073
0.1401331003162
-0.0019809687323899
0.14021062851029
-0.0021516916599121
0.14029656163855
-0.002324994107532
0.14039153323484
-0.0025015458756621
0.14049610542275
-0.0026796886171524
0.14061090338021
-0.0028602623825304
0.14073636742594
-0.0030397806718748
0.14087319295918
-0.0032217162746401
0.14102174450382
-0.0033997723106555
0.14118306111925
-0.0035834576385017
0.14135736923171
-0.003758795973279
0.14154634984665
-0.0039473972181654
0.14174960392629
-0.0041162623204231
0.14196993850807
-0.0043144745132529
0.14220519626002
-0.0044653435668202
0.14246046811603
-0.0046828228016547
0.14272968865201
-0.0047910408666087
-0.0050621981994167
0.14302458631324
0.13185709840478
-7.7740636345299e-05
0.13186332111838
-0.00023716446918828
0.13187407639217
-0.00039999851435734
0.13188930279738
-0.00056158076725883
0.13190882420055
-0.000720491873435
0.13193256480029
-0.00087786016208654
0.13196063466098
-0.0010356792369557
0.13199332303677
-0.0011958235537771
0.13203103354329
-0.0013592950824559
0.1320742038034
-0.0015261993600053
0.13212325862364
-0.0016959594767167
0.13217861898265
-0.0018682946998612
0.13224073929996
-0.0020430890350793
0.13231015125283
-0.0022211035987211
0.13238744670442
-0.0024022895455719
0.13247328012478
-0.002587379282809
0.13256826222717
-0.0027746707068053
0.13267305199046
-0.0029650521335882
0.13278816465669
-0.0031548933266264
0.13291434744899
-0.0033478990563241
0.13305206569077
-0.0035374905429488
0.13320244013362
-0.0037338320730515
0.13336580710932
-0.0039221629419844
0.133543985182
-0.0041255752850643
0.13373667142339
-0.0043089485570931
0.13394693073265
-0.0045247338184831
0.13417277027941
-0.0046911831097023
0.13441959219749
-0.0049296447152185
0.13468150625508
-0.0050529549180715
-0.0053502049148544
0.13496951298018
0.12445633495192
-7.9429205621462e-05
0.12446163537849
-0.00024246484460184
0.12447085529828
-0.00040921838183014
0.12448393651241
-0.00057466193146186
0.12450070719972
-0.00073726251475732
0.12452109302106
-0.00089824594168486
0.12454520296943
-0.0010597891478204
0.12457332178308
-0.0012239423337112
0.1246058505106
-0.0013918237796085
0.12464322445882
-0.0015635732805239
0.12468587365642
-0.0017386086487908
0.12473421996592
-0.0019166409853586
0.12478872972065
-0.0020975987669754
0.12484993328818
-0.0022823071441723
0.12491844689394
-0.0024708031299168
0.12499492508973
-0.0026638574576755
0.1250800330496
-0.0028597786463841
0.12517443249187
-0.0030594515562974
0.12527873611024
-0.003259196926439
0.12539368996462
-0.0034628528933726
0.12551990425208
-0.003663704814609
0.12565850390333
-0.0038724317102013
0.12581000393265
-0.0040736629590341
0.12597627453601
-0.0042918458779504
0.1261571383735
-0.0044898123857541
0.12635583077618
-0.0047234262136079
0.12657037189005
-0.0049057242166549
0.12680691778249
-0.0051661906003637
0.12705966034969
-0.0053056974763095
-0.0056304986502942
0.12733995409805
0.11747093944013
-8.0824802540477e-05
0.11747534794405
-0.00024687327092343
0.11748308087719
-0.00041695123445215
0.11749408030373
-0.00058566127979506
0.11750818155482
-0.00075136369224496
0.11752531305575
-0.00091537737422606
0.11754557982555
-0.0010800558543854
0.11756925458426
-0.0012476170337561
0.11759672775406
-0.0014192968946474
0.11762842751592
-0.0015952729907445
0.11766478583586
-0.0017749669195529
0.11770622081137
-0.0019580759134834
0.1177532055279
-0.0021445834375214
0.11780625472513
-0.0023353562964239
0.11786600206085
-0.0025305504215593
0.11793307811419
-0.0027309334677633
0.1180082107495
-0.0029349112393956
0.11809202409986
-0.0031432648655365
0.11818527108011
-0.0033524438670635
0.11828860733399
-0.0035661891095404
0.11840289121044
-0.0037779886556191
0.11852906715848
-0.0039986076254417
0.11866803911356
-0.004212634884051
0.11882145970445
-0.0044452664415824
0.11898958902199
-0.0046579416786607
0.11917563039928
-0.004909467568698
0.11937722304754
-0.0051073168445122
0.11960158586358
-0.0053905533967241
0.11984100394193
-0.0055451155343432
-0.005906036927795
0.12011654224411
0.11087761387881
-8.1953686610472e-05
0.11088118514924
-0.0002504444273058
0.11088751151071
-0.00042327747758141
0.11089652758286
-0.00059467723588597
0.11090808213287
-0.00076291813122659
0.11092210682907
-0.00092940196515481
0.1109387007789
-0.001096649704505
0.11095811883772
-0.0012670349976982
0.11098073331472
-0.0014419112808117
0.11100696170183
-0.0016215012901967
0.11103723333817
-0.0018052384707592
0.11107195974038
-0.0019928022324677
0.11111161211409
-0.0021842357295629
0.11115668129849
-0.0023804254004138
0.11120781008435
-0.0025816791282687
0.11126559394712
-0.0027887172525762
0.11133082607318
-0.0030001432890303
0.11140406278517
-0.0032165015028651
0.11148623315228
-0.0034346141619255
0.11157780192434
-0.0036577578122491
0.11168001448615
-0.0038802011517071
0.11179334083816
-0.0041119339157183
0.11191948155958
-0.0043387755480304
0.11205915817921
-0.004584943007973
0.11221407288712
-0.0048128563375719
0.11238631379526
-0.0050817084320379
0.11257484484869
-0.0052958478570091
0.11278651932747
-0.0056022278374897
0.11300840032302
-0.0057669964933648
-0.006177005048279
0.11327936848399
0.10465436931122
-8.2856896231188e-05
0.10465718664784
-0.00025326161108813
0.10466220214667
-0.00042829282078132
0.10466936026967
-0.0006018352060974
0.10467852363852
-0.0007720813524331
0.10468963147656
-0.0009405096612031
0.10470276515056
-0.0011097832418127
0.10471814475747
-0.0012824144723916
0.10473612300903
-0.0014598894037837
0.10475711278733
-0.0016424909427544
0.10478155650753
-0.0018296820674554
0.10480986079922
-0.0020211064025091
0.10484247430177
-0.0022168491120257
0.10487984745525
-0.0024177984353407
0.10492260350894
-0.002624435064916
0.10497130718904
-0.0028374208174152
0.1050268037457
-0.0030556397324848
0.10508960555624
-0.0032793032029605
0.10516080639129
-0.0035058148900066
0.10524065649951
-0.0037376078180888
0.10533083977119
-0.0039703843263707
0.10543110298469
-0.0042121970384228
0.10554441955623
-0.0044520920350134
0.10566943178451
-0.004709955157986
0.10581127677302
-0.0049547012541193
0.10596691120671
-0.0052373428004825
0.10614385493093
-0.0054727915226014
0.10634120496833
-0.0057995778220798
0.10655790122135
-0.0059836926979468
-0.0064255357384775
0.10680643196431
0.098780385222799
-8.3523687352596e-05
0.098782526278797
-0.00025540248838151
0.09878624966968
-0.00043201603173632
0.09879169163511
-0.00060727699468616
0.098798627248086
-0.00077901679319687
0.098807070064344
-0.00094895230998878
0.098817073333803
-0.0011197863479913
0.098828808900569
-0.0012941498791707
0.098842596171475
-0.0014736765172158
0.098858836794261
-0.0016587314098747
0.098877980151811
-0.001848825270805
0.09890044034171
-0.002043566439386
0.098926651444523
-0.0022430600630666
0.098957022316101
-0.0024481691563813
0.098992124294252
-0.0026595368941224
0.099032476018299
-0.0028777723943599
0.099078928406117
-0.0031020919758386
0.099131988646224
-0.0033323633020779
0.099192867412091
-0.0035666935198888
0.099261721840563
-0.0038064621170199
0.099340567034904
-0.0040492293992614
0.099428607183913
-0.0043002370748241
0.099529945297794
-0.0045534300454951
0.099641135603423
-0.0048211453691843
0.099771266129974
-0.0050848316954168
0.099909676253646
-0.0053757528487696
0.10007670173876
-0.0056398169422474
0.10024679334382
-0.0059696693698756
0.10046323977168
-0.0062001390733099
0.1007144011871
-0.0066766970984389
0.39442492787091
0.0046635773261932
0.38991936852772
0.0045055593851041
0.38557634071617
0.0043430278529134
0.38140023774692
0.0041761030107118
0.37739531096863
0.0040049268198951
0.37356566847721
0.0038296425335525
0.3699152682109
0.0036504003088088
0.36644790753623
0.0034673607178379
0.36316721524976
0.0032806923300413
0.36007664707785
0.0030905682161719
0.35717948379749
0.0028971633250072
0.35447883097323
0.0027006528695871
0.35197762006519
0.0025012109536963
0.34967861046656
0.0022990096449519
0.34758439159171
0.0020942189214285
0.34569738419573
0.0018870074431669
0.34401984022653
0.0016775440165855
0.34255384089871
0.0014659993757784
0.341301293108
0.0012525478387914
0.34026392474452
0.0010373684121297
0.33944327946198
0.00082064533128424
0.33884071045677
0.00060256905450489
0.33845737127001
0.00038333923616168
0.33829417980927
0.00016319151072355
0.33835189685915
-5.7716999781427e-05
0.33863137104841
-0.00027947413853797
0.33913284166573
-0.00050147056648255
0.33985649854989
-0.00072365683270282
0.34080234216472
-0.00094584356328568
0.34197016742393
-0.0011678252071105
0.34335955497028
-0.0013893874942772