/*--------------------------------*- C++ -*----------------------------------*\
| =========                 |                                                 |
| \\      /  F ield         | OpenFOAM: The Open Source CFD Toolbox           |
|  \\    /   O peration     | Version:  2112                                  |
|   \\  /    A nd           | Website:  www.openfoam.com                      |
|    \\/     M anipulation  |                                                 |
\*---------------------------------------------------------------------------*/
FoamFile
{
    version     2.0;
    format      ascii;
    arch        "LSB;label=32;scalar=64";
    class       volScalarField;
    location    "10.1";
    object      p;
}
// * * * * * * * * * * * * * * * * * * * * * * * * * * * * * * * * * * * * * //

dimensions      [0 2 -2 0 0 0 0];

internalField   nonuniform List<scalar> 
22000
(
-0.0040876717664299
-0.0041091325930051
-0.0041535758058781
-0.0042220588615656
-0.0043150796939017
-0.0044325747534648
-0.0045742063732214
-0.0047396013534814
-0.0049284399584819
-0.0051404421422937
-0.0053753258641871
-0.0056327735773451
-0.0059124232030934
-0.0062138656219991
-0.0065366556979417
-0.0068803080307479
-0.0072443124645621
-0.0076281141099818
-0.0080311417246397
-0.008452760992307
-0.0088923416961509
-0.0093491554195445
-0.0098225304462359
-0.010311619789582
-0.010815751992246
-0.011333906321169
-0.011865505543458
-0.012409235525152
-0.012964826696224
-0.01353045118053
-0.003683746758009
-0.0037065972114617
-0.0037529616860269
-0.0038237719899471
-0.0039195471474486
-0.0040402894264026
-0.0041857137382451
-0.0043554733241541
-0.0045492577748067
-0.0047667896905739
-0.0050077897826775
-0.0052719436699144
-0.0055588941154143
-0.0058682351080176
-0.006199525814416
-0.0065522796846456
-0.0069259878575067
-0.0073200864614575
-0.0077340042452329
-0.0081670881568697
-0.0086187131086189
-0.0090881172986335
-0.0095746501269802
-0.010077402462307
-0.01059576282764
-0.011128591919263
-0.011675463455787
-0.012234850278989
-0.012806836629583
-0.013389286077564
-0.0029401508598434
-0.0029642048968976
-0.0030129041058668
-0.0030871365944337
-0.0031873869475372
-0.0033136529594131
-0.0034656636689389
-0.0036430887038845
-0.0038456301934934
-0.004073018926698
-0.0043249828561222
-0.0046012132438654
-0.0049013599597526
-0.0052250207435562
-0.0055717610683555
-0.0059410928321005
-0.0063325118858605
-0.0067454428169148
-0.0071793196217936
-0.0076334606674418
-0.0081072537276037
-0.0085998769702532
-0.0091107172478309
-0.0096387431622963
-0.010183446825386
-0.010743440364113
-0.011318559409268
-0.011906795398892
-0.012508866645001
-0.0131218911498
-0.0018993977972959
-0.0019248759864218
-0.0019764534308071
-0.0020550567054623
-0.0021611787955319
-0.0022948131779769
-0.0024556881669778
-0.0026434801635913
-0.0028579044054925
-0.0030987065131651
-0.003365630444048
-0.0036583808356863
-0.0039766223299698
-0.0043199624733171
-0.0046879807039829
-0.0050801921955829
-0.0054961058091958
-0.0059351359920506
-0.0063967310750169
-0.0068801748650505
-0.0073848804577087
-0.0079099459886428
-0.0084548196594812
-0.0090183007522524
-0.0096000400410531
-0.010198302255937
-0.010813320564253
-0.011442421525973
-0.012087284487639
-0.012744005406624
-0.00059738786294464
-0.00062455022566043
-0.00067954024286106
-0.00076334120364103
-0.0008764701618217
-0.0010189260053613
-0.0011904418908507
-0.0013907060624561
-0.0016194544434542
-0.0018764576589401
-0.0021614880560417
-0.0024742763040021
-0.0028145155103091
-0.0031818357045962
-0.0035758448643823
-0.0039960734633783
-0.0044420591551803
-0.0049132156226619
-0.0054090229758856
-0.0059287333386575
-0.0064718067762213
-0.0070372510889205
-0.007624609366857
-0.0082324746176796
-0.008860720077798
-0.0095071720323446
-0.010172595813758
-0.010853458247553
-0.011552685314053
-0.012265007410511
0.00093495094025837
0.00090591882387503
0.0008471378199338
0.00075756037012199
0.00063663843772318
0.00048435882348656
0.00030097239836911
8.6766553850843e-05
-0.000158029374197
-0.00043322634737945
-0.00073864225496222
-0.0010740517133468
-0.0014391960714955
-0.0018337473339165
-0.0022573639271551
-0.0027096113494404
-0.0031900798163548
-0.0036981998966729
-0.0042335094663187
-0.0047952406120542
-0.0053829308768442
-0.0059954961763353
-0.0066326161308211
-0.0072926483032981
-0.0079757585704192
-0.0086792484361171
-0.0094045515825231
-0.010147084086305
-0.010911307308064
-0.011690263469439
0.0026699722718126
0.0026389754489789
0.0025762063749515
0.0024805471459233
0.0023514123984379
0.0021887649741361
0.0019928263386177
0.0017638434670403
0.0015019927841219
0.0012074033416241
0.0008801899847005
0.00052051116854518
0.0001285517872504
-0.00029542809720756
-0.00075116641742048
-0.0012382912000437
-0.0017564773464676
-0.0023051988755089
-0.0028840867941732
-0.0034923746456075
-0.0041297180340301
-0.0047949498354085
-0.0054879385883915
-0.0062067876971122
-0.0069520361421007
-0.0077203862237015
-0.0085140882906084
-0.0093273326664991
-0.010166419480481
-0.011022407756795
0.0045820042091942
0.004549038543165
0.0044822672843393
0.0043804979434588
0.0042431016711749
0.0040700064524618
0.0038613887690992
0.003617436431769
0.0033382516470305
0.003023880212144
0.0026743438143575
0.0022897061707113
0.0018700473724085
0.0014155272877813
0.00092629238206716
0.00040261674883789
-0.00015529991115985
-0.00074701106039965
-0.0013722863471642
-0.0020303932551279
-0.002721157655022
-0.003443350632188
-0.0041970943611338
-0.0049802330373964
-0.0057937726916358
-0.0066337561512776
-0.0075034105877242
-0.0083955428563219
-0.0093186066401452
-0.01026141249649
0.0066465191311853
0.0066116707499258
0.0065410655787397
0.0064334342964182
0.0062880985941829
0.0061049395338953
0.0058840712352935
0.0056256014845075
0.0053295345986941
0.0049958070871123
0.0046243183029439
0.0042150054122979
0.0037678079502668
0.0032827477625571
0.0027598133025989
0.0021991381416399
0.001600747803836
0.00096496416262449
0.00029182345602931
-0.00041801969491803
-0.0011646255797836
-0.0019467388496081
-0.0027648143308528
-0.0036164485087552
-0.0045032222731204
-0.0054204768674486
-0.0063725873698566
-0.0073508381164822
-0.0083661605273052
-0.0094048962405361
0.0088396770641067
0.0088031191721051
0.008729024992822
0.0086160479010497
0.0084634544291566
0.0082710659012155
0.0080389156263092
0.0077670093962006
0.0074552288146824
0.007103373540982
0.006711189447965
0.006278452582923
0.0058049228421767
0.005290441870122
0.0047347927581012
0.004137919659491
0.003499618309506
0.0028200321309911
0.0020989389388117
0.0013368602171987
0.00053342660071394
-0.00031013024353977
-0.0011946882489972
-0.0021176285671887
-0.0030812297951581
-0.0040801196267703
-0.0051200078966297
-0.0061905505347463
-0.0073054842581368
-0.0084484909066393
0.011138141311245
0.011100128151137
0.011023054670849
0.010905497946623
0.010746663946575
0.010546301437262
0.010304344668908
0.010020675732713
0.009695029000192
0.0093270396292732
0.0089162685555834
0.0084622949406027
0.0079646585396073
0.0074229758191363
0.0068367743151222
0.0062057548546876
0.0055294231214781
0.0048076821881854
0.004039980637959
0.0032266391307347
0.0023668975743339
0.0014618955260392
0.00051023813132092
-0.0004852990156136
-0.0015278072398987
-0.0026112334822741
-0.003742805635669
-0.0049105364680652
-0.006131334433003
-0.0073861368531578
0.013519089767087
0.013479947510047
0.013400551038412
0.013279403110471
0.013115644443066
0.012908939450078
0.012659106615089
0.01236588433317
0.012028837098373
0.011647409349545
0.01122094717127
0.010748797634801
0.010230240808221
0.0096646220143527
0.0090511630979167
0.0083892640198779
0.0076780791293908
0.0069172011050129
0.0061056771490175
0.0052435427496251
0.0043295679110832
0.0033646965125096
0.0023469440738337
0.0012791085700317
0.00015725214717043
-0.0010120735851878
-0.0022375683581309
-0.0035058598045177
-0.0048371117351542
-0.0062098972805478
0.015960355110281
0.015920469965701
0.015839530415749
0.015715966670501
0.015548849946992
0.01533775067449
0.01508235803356
0.014782250017921
0.014436801946402
0.014045244448927
0.013606682148849
0.013120197596007
0.012584774722044
0.011999443365946
0.011363072173286
0.010674701623956
0.0099330760195682
0.0091374005962161
0.008286253994345
0.0073792821567387
0.0064147214388369
0.0053931670347985
0.0043120189924916
0.0031738454754362
0.0019739525555491
0.00071895732972212
-0.000601014178862
-0.0019717208722785
-0.0034164504271365
-0.0049113705185995
0.018440645828854
0.018400447315835
0.018318838455445
0.018194177493739
0.018025463017457
0.017812164760893
0.017553832742195
0.017249872067462
0.016899453933959
0.016501577058007
0.01605508279903
0.015558762367405
0.015011271684393
0.014411286293353
0.013757277706933
0.013047872994018
0.01228134916311
0.011456450629923
0.01057121557979
0.009624803696017
0.0086148279493386
0.0075414168083827
0.0064012359563543
0.0051964996106476
0.0039215882108535
0.0025830638146991
0.0011697445402491
-0.00030360963153756
-0.0018623559301072
-0.0034818585857941
0.020939812459453
0.02089975837787
0.020818408030045
0.020694056038622
0.020525630325958
0.020312496344941
0.020054058258553
0.019749539673781
0.01939789738073
0.018997886023148
0.018548068370949
0.018046924858624
0.017492758406469
0.016883859618917
0.016218264831702
0.015494142870914
0.014709248706993
0.013861803552934
0.012949228248115
0.011970113882814
0.010921344080502
0.0098024798532761
0.0086093096816763
0.0073435813369517
0.0059985620515927
0.0045806460397972
0.0030770920487297
0.0015031090760989
-0.00016923100523166
-0.0019144183361699
0.023439078612117
0.02339963925092
0.023319498395159
0.023196901498034
0.023030712449698
0.022820192240913
0.022564596316402
0.022262963662431
0.021914032974424
0.021516309372881
0.021068068616852
0.020567468971942
0.020012444299697
0.019400879166984
0.018730346503576
0.017998521920429
0.017202593227128
0.016340204904428
0.01540809186421
0.014404199743618
0.013324582745478
0.012168131953921
0.010929620311842
0.0096102045907107
0.0082018568588779
0.0067106593396698
0.0051220636033615
0.0034515376675605
0.0016681639382923
-0.00020209379565845
0.025921244424754
0.025882886597372
0.025804901249269
0.025685502412696
0.025523499786969
0.025318053115008
0.025068270337841
0.024773007642024
0.024430788315184
0.024039870634697
0.023598244337116
0.023103743185069
0.022553925310686
0.021946258791915
0.021277836487995
0.020545818324946
0.019746792094991
0.018877785140267
0.017934789434342
0.016915040276552
0.015813671030959
0.014628806755291
0.013354066467809
0.011989886906548
0.01052675439029
0.0089702926709813
0.0073038922692981
0.0055430972341971
0.0036535023880834
0.0016609658427512
0.028370860790556
0.028334034394315
0.028259118063216
0.028144314734774
0.027988392860024
0.02779041752143
0.027549354494509
0.027263883996611
0.026932322831683
0.026552692129729
0.026122705103724
0.02563987887468
0.025101401160383
0.024504324306097
0.023845257071415
0.02312083443592
0.022327025983714
0.02146021675596
0.020515613960332
0.019489694725337
0.01837659419714
0.017173593663521
0.015873025866302
0.014474485616591
0.012966754537637
0.011354837976714
0.0096197691723552
0.007777055964537
0.0057882934739994
0.0036787083672136
0.030774345200427
0.030739473297813
0.030668484735401
0.030559592008349
0.030411537014565
0.030223301357987
0.029993720154697
0.029721309910657
0.029404195056465
0.029040174640721
0.028626702711003
0.028160996043427
0.027639888877736
0.027060030556918
0.026417557381869
0.025708582639219
0.024928458046108
0.024072914841621
0.023136354445082
0.022114462347152
0.021000319520623
0.019790306805919
0.018475362143861
0.017054156293222
0.015513543554922
0.01385774687309
0.012064976976222
0.010150538783472
0.0080714606930313
0.0058521357409503
0.033120028314115
0.03308750431124
0.033021236900069
0.032919464012223
0.03278091557895
0.032604505589647
0.032388956353418
0.032132638421211
0.031833503892241
0.031489150640843
0.031096799299184
0.030653390080129
0.030155432027493
0.029599191413094
0.028980360078566
0.028294542147979
0.027536497361436
0.026701299565848
0.025782559654261
0.024775139849896
0.023671054001763
0.022465717970776
0.021148614291408
0.019717427053428
0.018156959067077
0.016470601833346
0.014633237282269
0.012659560534789
0.0105006512999
0.0081799540903167
0.035398131434445
0.035368316806104
0.03530749725593
0.035213940895746
0.035086377260392
0.034923673342866
0.034724461993574
0.034486987727019
0.034209052463372
0.03388807737948
0.0335210841156
0.033104768698143
0.032635358710488
0.032108766522071
0.03152028791039
0.030865031977392
0.030137223086427
0.029331265084601
0.02844005196526
0.02745756393794
0.026374840736604
0.025186192789486
0.023879731855736
0.022451924126149
0.020885599512429
0.019183279583444
0.01731660817013
0.015299795285527
0.013075245231291
0.010664419168935
0.037600709878096
0.037573900189474
0.037519152828994
0.037434773533081
0.037319507289126
0.037172185330599
0.03699136482607
0.036775187290647
0.036521337014982
0.036227088122469
0.035889297235367
0.035504444588697
0.035068522317856
0.034577121191823
0.034025218096342
0.033407452313499
0.032717617129047
0.031949414967005
0.031095174302635
0.030147857122407
0.029097794378139
0.027937878747026
0.026655283606749
0.025244624978603
0.023687213151718
0.021983847524247
0.020103608809154
0.01806156826286
0.015791249562665
0.013309192355325
0.039721660418323
0.039697984463314
0.039649671432069
0.039575118484461
0.039473157820275
0.039342597610566
0.039181885999046
0.038989041604803
0.03876166223421
0.038496933357673
0.038191601967136
0.037841973622399
0.037443840494256
0.036992475002317
0.036482585666393
0.035908343691279
0.035263240915474
0.03454023118433
0.033731323892152
0.032828215307096
0.031821027178588
0.030700537319295
0.029454112659166
0.028072914980014
0.026538927470186
0.024847456553737
0.022967660826354
0.02091008199334
0.01860798887942
0.016081705496776
0.041756901029618
0.041736264864486
0.041694276780464
0.041629596848392
0.041541221205008
0.04142799473325
0.041288275095311
0.041119921326104
0.04092040348493
0.040686803308174
0.040415821126015
0.040103638655148
0.039745925249353
0.039337714094309
0.038873496141186
0.038346938616273
0.037751225757282
0.037078427065583
0.036320341846253
0.035467095077715
0.034509093649489
0.033434040406424
0.032231120685467
0.030885181978464
0.029384020636996
0.027709317876849
0.025842647626283
0.023762587327619
0.021421501905138
0.018813833911371
0.043704893019753
0.043687469203287
0.043651549007006
0.043596730488508
0.043521946056001
0.043426067015532
0.043307411989351
0.043163887513523
0.042993017394513
0.042791845186593
0.042556893210745
0.042284088253785
0.041968990938453
0.041606583098902
0.041191391120168
0.040716848474628
0.04017590309371
0.039559764703108
0.038859836854054
0.03806467949213
0.03716494762275
0.036145321587442
0.034997272305939
0.033698510433409
0.032245506211671
0.030601833843011
0.028777608803735
0.026699021005606
0.024374461541331
0.021554735317934
-0.014070921019911
-0.014583936175692
-0.015103696056191
-0.015629112189508
-0.016159209630136
-0.016693188204792
-0.0172303505569
-0.017770006768433
-0.018311432769691
-0.01885387601757
-0.019396572261111
-0.019938757755986
-0.020479675952264
-0.021018580114157
-0.021554734661143
-0.022087417920438
-0.022615924456993
-0.023139566258068
-0.023657674207108
-0.024169599864784
-0.024674717118563
-0.025172420713288
-0.025662122245509
-0.026143239374073
-0.026615192316862
-0.027077498350823
-0.027529969787933
-0.027972216870403
-0.028403792618447
-0.028824297534105
-0.029233405378968
-0.029630848911362
-0.030016404377853
-0.03038987814658
-0.030751108533545
-0.031099957887957
-0.031436324009636
-0.031760121125422
-0.032071305401808
-0.032369831984957
-0.032655715124647
-0.032928931758134
-0.03318956252853
-0.033437575912911
-0.033673150472705
-0.033896188506604
-0.034107050932598
-0.034305467841343
-0.034492215098851
-0.034666713616799
-0.013942789687028
-0.014464942007491
-0.014994697538802
-0.015530160800826
-0.016069985361342
-0.016613446291434
-0.017160085122748
-0.017709391470657
-0.01826071469268
-0.018813312388489
-0.019366410435034
-0.019919235641805
-0.020471025640601
-0.021021026381542
-0.021568488122687
-0.022112666127171
-0.022652823487894
-0.02318823320363
-0.0237181808338
-0.024241969144364
-0.02475892316881
-0.025268396997427
-0.025769784077489
-0.02626253840922
-0.026746191634184
-0.027220249802255
-0.027683945213922
-0.02813680291551
-0.028578474393718
-0.029008633679943
-0.029426963268785
-0.029833166538163
-0.030226984999896
-0.030608196136344
-0.030976622169938
-0.031332114614911
-0.031674573246519
-0.032003913047128
-0.032320109108697
-0.032623123520153
-0.032913009931536
-0.033189751750934
-0.033453499392229
-0.033704207004986
-0.033942168658219
-0.034167201962456
-0.03437984782492
-0.034579530457947
-0.03476719687418
-0.034941103382936
-0.013701904782112
-0.014247329391823
-0.014802435426475
-0.015363440438457
-0.015927993893145
-0.016495355361984
-0.017065442799839
-0.017638027237529
-0.018212534033287
-0.018788178949269
-0.019364118711342
-0.019939525917409
-0.020513605352595
-0.021085580263412
-0.021654677329551
-0.022220124463438
-0.022781154633389
-0.023337008670556
-0.02388693979477
-0.024430220767551
-0.024966150090599
-0.025494053720549
-0.026013283740286
-0.026523211367489
-0.027023216025827
-0.027512703285119
-0.027991209095141
-0.028458271148496
-0.02891346825981
-0.029356424538729
-0.029786807418848
-0.030204322460959
-0.030608722959964
-0.030999801745953
-0.031377406787643
-0.031741416769668
-0.032091773751653
-0.032428428818159
-0.032751418467113
-0.033060743824759
-0.033356546099264
-0.033638837804455
-0.033907899680511
-0.034163675471393
-0.034406669068669
-0.034636572294506
-0.034854275030055
-0.035058713405641
-0.035251247314001
-0.035428112746612
-0.01336339360244
-0.013945251402681
-0.014539554673216
-0.015139508348867
-0.015741275688296
-0.016344166450596
-0.016948714696282
-0.017555134161965
-0.018162970339396
-0.018771384968974
-0.019379449559275
-0.019986281388657
-0.020591065687042
-0.021193023365259
-0.021791378341826
-0.022385350016715
-0.0229741581606
-0.023557026110883
-0.024133185964994
-0.024701887827787
-0.025262406728493
-0.025814043921151
-0.026356127853172
-0.02688801974962
-0.027409124297077
-0.027918893914188
-0.028416797963833
-0.028902361868698
-0.029375160746544
-0.029834815277914
-0.030280998222995
-0.030713428461759
-0.03113188247803
-0.031536178693175
-0.031926201134616
-0.032301862135181
-0.032663155192185
-0.033010072224405
-0.033342723246889
-0.033661151421233
-0.03396560442875
-0.034256120667953
-0.034533142814482
-0.034796583822929
-0.035047213035635
-0.035284526332297
-0.035509852105517
-0.03572139227401
-0.035920958699328
-0.036101762391096
-0.012935152606969
-0.013565079763083
-0.014210998088492
-0.014861960495723
-0.015512183162603
-0.016161123949399
-0.016810192000829
-0.017460205457773
-0.018110863167912
-0.018761248399231
-0.019410321553135
-0.020057135128245
-0.020700859204037
-0.021340721956808
-0.02197595268369
-0.022605767558244
-0.023229376749829
-0.023845989038338
-0.024454818744935
-0.025055098548915
-0.025646089147818
-0.026227080347282
-0.026797391212951
-0.027356373075149
-0.027903414639944
-0.028437945729871
-0.028959443813216
-0.029467429732945
-0.029961476538071
-0.03044120870055
-0.030906311038736
-0.031356519213987
-0.031791635835111
-0.032211507385286
-0.032616058920675
-0.033005242063668
-0.033379111483407
-0.033737707319428
-0.034081226528283
-0.034409761173247
-0.034723684480864
-0.035023064879154
-0.03530853579739
-0.035579973095765
-0.03583845834565
-0.036083252948155
-0.036316204591778
-0.036534639007265
-0.036740927129987
-0.03692464228144
-0.012421677630039
-0.013110629542733
-0.013820080089892
-0.014533663649542
-0.015243154898997
-0.015948270704145
-0.016651567441908
-0.017354626554031
-0.018057319302074
-0.018758610870581
-0.019457314716936
-0.020152403452521
-0.020843031971494
-0.021528441139605
-0.022207869829849
-0.022880532274292
-0.023545629084741
-0.024202354492265
-0.024849905283442
-0.025487497364709
-0.026114377626212
-0.026729823466203
-0.027333140915156
-0.027923667250806
-0.028500778173682
-0.029063896029885
-0.029612497183864
-0.030146102453336
-0.030664288064245
-0.031166685024169
-0.031652991927422
-0.032122962732024
-0.032576428654681
-0.033013267853002
-0.033433452162487
-0.033836977829559
-0.034223967898988
-0.03459451684763
-0.034948918101858
-0.035287319396884
-0.035610232129072
-0.035917761505585
-0.036210749293021
-0.036489038640117
-0.036754050334112
-0.037004806425669
-0.037243720319247
-0.037467184919862
-0.037678182263267
-0.03786227122458
-0.011825036551697
-0.012583674941293
-0.013368439288575
-0.014156092899826
-0.0149354401889
-0.015706606429463
-0.016473605740893
-0.017238953683177
-0.018002705325762
-0.018763656594477
-0.019520431197799
-0.020271905000992
-0.021017218618383
-0.021755631692203
-0.022486396107832
-0.02320872388998
-0.023921804071129
-0.024624814079351
-0.025316931094811
-0.025997352224607
-0.026665308576494
-0.027320063266956
-0.027960907928298
-0.028587165686138
-0.029198200373662
-0.029793425686799
-0.030372310591186
-0.030934372002155
-0.03147918713124
-0.032006392059306
-0.032515697535579
-0.033006873829743
-0.033479778768105
-0.033934320147015
-0.034370515016915
-0.034788403740449
-0.035188177440225
-0.035569985207755
-0.035934217166846
-0.036281079514861
-0.036611222267941
-0.036924793934415
-0.037222843021681
-0.037505194812824
-0.037773603259849
-0.038026877825686
-0.038267982459402
-0.038492404891703
-0.038703696552825
-0.038883298598185
-0.01114469716462
-0.011983591482843
-0.012855567326961
-0.013728812556515
-0.014588584564262
-0.015435619206894
-0.016275750038156
-0.017112613319864
-0.017946451241089
-0.018775826875991
-0.019599124986668
-0.02041510656979
-0.021222898313157
-0.022021783786423
-0.022811029956084
-0.023589843711048
-0.024357397092686
-0.025112845161169
-0.025855340382972
-0.026584056502272
-0.027298204584271
-0.027997029157768
-0.0286798028494
-0.029345829485516
-0.029994454918083
-0.030625077490455
-0.031237152680435
-0.031830186793177
-0.032403750726501
-0.032957477818764
-0.033491083121335
-0.034004346245183
-0.034497144225466
-0.034969407714543
-0.035421190948247
-0.03585257132671
-0.036263798909219
-0.03665507287166
-0.037026869896539
-0.037379454235655
-0.037713599395245
-0.038029506087874
-0.038328403580681
-0.038610127798523
-0.038876715452692
-0.039126831993058
-0.039363898600669
-0.039582649017067
-0.039787072386858
-0.039954821119952
-0.010377776244123
-0.011307574526021
-0.012279002920143
-0.013249643039801
-0.014200566440941
-0.015133393203731
-0.016056207970647
-0.016973973466832
-0.017887105591721
-0.018793849898039
-0.019692293614747
-0.020581065319459
-0.021459281113834
-0.022326253685989
-0.023181264458578
-0.024023509355199
-0.024852135150366
-0.025666266120994
-0.02646502246004
-0.027247547464778
-0.02801302497805
-0.028760673341974
-0.029489737895212
-0.030199494354073
-0.030889261070667
-0.031558411297944
-0.032206376763929
-0.032832642233489
-0.033436760747271
-0.034018351961364
-0.034577122922239
-0.035112849629092
-0.035625413914657
-0.03611475629626
-0.036580952458319
-0.037024104463122
-0.037444502632198
-0.037842386045667
-0.038218293880603
-0.038572544684108
-0.038905999147728
-0.039218922578146
-0.039512663687043
-0.039787117597219
-0.040044493604268
-0.040283437826582
-0.040507631758941
-0.040711360057822
-0.040898769607979
-0.04104451663159
-0.0095193395268088
-0.010550878377619
-0.01163452125669
-0.012714810592652
-0.013767913012571
-0.014796686962655
-0.015811978427434
-0.016820307319902
-0.017822238481673
-0.018815594334233
-0.019798092666508
-0.020768210125567
-0.021725058401962
-0.022667986232219
-0.023596287219799
-0.024509136006857
-0.025405641619412
-0.026284886557159
-0.0271459492011
-0.027987933274162
-0.02880998571139
-0.029611288171173
-0.030391047284674
-0.0311484987861
-0.031882920867897
-0.032593648766263
-0.033280075936835
-0.033941651074736
-0.034577893112719
-0.035188390658821
-0.035772824005023
-0.036330947788002
-0.036862628201298
-0.037367797071706
-0.037846527197259
-0.038298926264708
-0.038725293735752
-0.039125892778045
-0.03950128275761
-0.039851830444741
-0.040178419944351
-0.040481400083929
-0.040762131616428
-0.041020640137418
-0.04125911939738
-0.041476384625625
-0.041676040293284
-0.041852408203499
-0.042009325493666
-0.04211978241619
-0.008562796292149
-0.0097072345632464
-0.010916450103293
-0.012119101745034
-0.013285727547827
-0.014420908125044
-0.015538827811038
-0.016647780272265
-0.017748418688111
-0.018838018348722
-0.019913853616383
-0.020974231481109
-0.022018267532189
-0.023045355011736
-0.02405479674323
-0.025045732818853
-0.02601721753825
-0.026968276800856
-0.027897935507273
-0.028805246764044
-0.029689308046568
-0.030549250675168
-0.031384228016773
-0.032193420946104
-0.032976051403142
-0.033731399523526
-0.034458801575831
-0.03515765088018
-0.035827411728623
-0.036467621332763
-0.03707790968993
-0.037657985844446
-0.038207671684826
-0.038726864504872
-0.039215598965698
-0.039673963385191
-0.040102220979379
-0.040500637837524
-0.040869728106681
-0.041209900486372
-0.041521962997838
-0.041806379763695
-0.04206435994408
-0.042296173367993
-0.042503726825692
-0.042686273930257
-0.042846828644201
-0.042980482564781
-0.043089992231392
-0.043148398870014
-0.0074997982336942
-0.0087691039284974
-0.010118165812515
-0.011456369765545
-0.012748072210006
-0.014000348018796
-0.015231403304751
-0.016451484991823
-0.017661207673183
-0.018857137679027
-0.020036028172273
-0.021196008854265
-0.022336210936705
-0.023456076084111
-0.024554908218303
-0.025631795640437
-0.026685717917813
-0.027715627275299
-0.02872048138445
-0.0296992698723
-0.030651025989123
-0.031574814183186
-0.032469716640555
-0.033334841303962
-0.034169334411684
-0.034972400746199
-0.035743296590335
-0.036481336916669
-0.037185905582868
-0.037856461750713
-0.038492555484044
-0.03909382184186
-0.039660002615548
-0.040190929433008
-0.040686553284158
-0.041146912811262
-0.041572172907608
-0.041962578360304
-0.042318504606708
-0.042640396171185
-0.042928830881799
-0.043184420817393
-0.043407958382602
-0.043600088627742
-0.043762019844344
-0.043893767752841
-0.043997053850372
-0.044069134701855
-0.044110465233339
-0.044096264479784
-0.0063206761397283
-0.0077274378160196
-0.009231687695505
-0.01071932615937
-0.012148020371704
-0.013528389002363
-0.014883483065607
-0.016225672628134
-0.017555350595708
-0.018868175834305
-0.020160297291238
-0.021429671361023
-0.022675467337503
-0.023897178229137
-0.025094091961795
-0.026265220971376
-0.027409446768416
-0.028525628276987
-0.029612639613021
-0.030669391127762
-0.031694833827131
-0.032687945698051
-0.033647716805538
-0.034573160996491
-0.03546332617266
-0.036317317972594
-0.037134286224272
-0.03791344047147
-0.038654053747042
-0.039355477034192
-0.040017144426253
-0.040638582878233
-0.041219410239394
-0.041759358187807
-0.042258237344634
-0.042716005218751
-0.043132652877414
-0.043508385247952
-0.043843327412048
-0.044137988910059
-0.044392542833637
-0.044607859001188
-0.044784022871628
-0.044922306342815
-0.045022654505298
-0.045086043288735
-0.045111666901097
-0.045100806042738
-0.04504607937858
-0.044930325304115
-0.0050164994228686
-0.0065733355731329
-0.0082483316972088
-0.0098996505652449
-0.011477633142125
-0.012997472964501
-0.014487942311974
-0.015963711847113
-0.017424730675608
-0.018865519400586
-0.02028153630586
-0.021670580311268
-0.02303188734432
-0.024365000082562
-0.025669164497121
-0.02694328556441
-0.028186120367404
-0.02939641445141
-0.03057294036433
-0.031714510567322
-0.032819972929804
-0.033888196379644
-0.034918055122893
-0.035908444624998
-0.036858288550591
-0.037766565983368
-0.038632290231491
-0.039454535186689
-0.040232428733695
-0.040965179099161
-0.041652061550053
-0.042292456610976
-0.042885804877465
-0.043431699621903
-0.043929740619472
-0.044379768561679
-0.044781507931754
-0.045135098152696
-0.045440265482908
-0.045697623778166
-0.0459066646051
-0.046068669972875
-0.046182789196362
-0.046251516481655
-0.046273187751002
-0.046251047243616
-0.046182877580265
-0.046079605214258
-0.045912572113866
-0.045667394038561
-0.0035779587078829
-0.0052972685945811
-0.0071590479157102
-0.0089886424454028
-0.010728440660924
-0.012399446936841
-0.014037076353294
-0.015658402528724
-0.017262640238444
-0.0188429275852
-0.020393964906677
-0.021913427061438
-0.023400648659129
-0.024855211699812
-0.026276281648342
-0.027662617067097
-0.029012821751224
-0.030325506155544
-0.031599321271674
-0.032832959668432
-0.03402514137591
-0.035174600216344
-0.036280068214042
-0.037340295473066
-0.038354053701114
-0.039320164754093
-0.040237471897398
-0.041104878188235
-0.041921327489727
-0.042685847734347
-0.043397509413379
-0.044055503470998
-0.044659035456257
-0.045207513999046
-0.045700248421604
-0.046136913383667
-0.046516868147238
-0.046840119235486
-0.047105852411257
-0.047314829539624
-0.047465353744272
-0.047559094981517
-0.047593634753302
-0.047572389113932
-0.047489623516423
-0.047350904109997
-0.047150509740273
-0.0468990513999
-0.046573947733121
-0.046206688127972
-0.0019963849562382
-0.0038904953238942
-0.0059553268800711
-0.0079777824880564
-0.0098918767696546
-0.011725912909686
-0.013522864193106
-0.015302176597066
-0.017061949507662
-0.018793684138838
-0.020491284919581
-0.022152359631498
-0.023776372175943
-0.025362917355049
-0.026911027317848
-0.028419266927307
-0.029886055200879
-0.031309845487714
-0.032689144831877
-0.034022499745485
-0.035308474094025
-0.036545637118582
-0.037732549683869
-0.038867786495817
-0.03994993708984
-0.040977633110226
-0.041949513942381
-0.042864274093961
-0.043720631085698
-0.044517387360702
-0.045253360366115
-0.045927497902583
-0.046538719607302
-0.047086181280408
-0.047568848556398
-0.047986157107302
-0.048337070654583
-0.048621300201045
-0.048837535739641
-0.048986416772745
-0.049064159569519
-0.049074100310736
-0.049012362390615
-0.048881739264531