/*--------------------------------*- C++ -*----------------------------------*\
| =========                 |                                                 |
| \\      /  F ield         | OpenFOAM: The Open Source CFD Toolbox           |
|  \\    /   O peration     | Version:  2112                                  |
|   \\  /    A nd           | Website:  www.openfoam.com                      |
|    \\/     M anipulation  |                                                 |
\*---------------------------------------------------------------------------*/
FoamFile
{
    version     2.0;
    format      ascii;
    arch        "LSB;label=32;scalar=64";
    class       volScalarField;
    location    "17.7";
    object      p;
}
// * * * * * * * * * * * * * * * * * * * * * * * * * * * * * * * * * * * * * //

dimensions      [0 2 -2 0 0 0 0];

internalField   nonuniform List<scalar> 
22000
(
0.036171626261675
0.036149501237563
0.036103715201938
0.036033167480476
0.035937311907053
0.035816158395201
0.035669958346385
0.03549895953065
0.035303332068208
0.035083193204713
0.034838645865949
0.034569808360605
0.034276825258137
0.03395987379244
0.033619152840718
0.033254888920564
0.032867320475684
0.032456722304908
0.032023374246657
0.031567614490338
0.031089764603816
0.030590245910004
0.030069408279958
0.029527790248056
0.028965732595453
0.028383961008866
0.027782715425387
0.027163056382814
0.026524895225101
0.025869921396635
0.036586789424579
0.03656359574158
0.036516599947268
0.036444798013608
0.036347589209721
0.036224904798033
0.036076941797187
0.035903918115742
0.035705986385003
0.035483250062884
0.035235796791567
0.034963728028895
0.034667168284436
0.034346274800354
0.034001223323124
0.033632220368471
0.03323947926567
0.032823257456197
0.032383806522079
0.031921453266491
0.03143648409409
0.03092932110955
0.030400263523361
0.029849874325916
0.029278408063453
0.028686658285497
0.028074691209269
0.027443705535786
0.026793190953646
0.026125026490139
0.037346166371998
0.037322383294604
0.037274269160846
0.037200905327623
0.037101740384983
0.036976702641779
0.036825956068147
0.036649679217474
0.036447989050984
0.036220957888514
0.035968641785167
0.035691109312382
0.035388447266929
0.035060775220604
0.034708225776903
0.034330967132627
0.033929165270652
0.033503043108977
0.033052798821525
0.032578735157298
0.032081073051886
0.031560234242737
0.031016426368393
0.030450261720078
0.029861843906202
0.029252117919182
0.028620853156629
0.027969593241437
0.027297089004557
0.026605767770161
0.038397301434658
0.038372980868881
0.038323778091178
0.03824876968365
0.038147406697751
0.038019613015368
0.037865530363118
0.037685300493122
0.037478996069832
0.037246643613557
0.036988250611236
0.03670383583461
0.036393430255087
0.036057097641324
0.035694906387861
0.03530696635866
0.034893371731408
0.034454291040804
0.033989841068337
0.033500284201605
0.032985742523771
0.032446630105798
0.031883018368047
0.031295580581148
0.030684198494776
0.030050015054564
0.029392361308919
0.028713227577795
0.028010273483462
0.027286626955173
0.039693966292713
0.039669124544281
0.039618855012217
0.039542214521401
0.039438638113932
0.039308032646187
0.039150509631149
0.038966165838342
0.038755018019332
0.038517031794325
0.038252147854154
0.037960315413656
0.037641487775788
0.037295650669961
0.036922783248095
0.036522912769891
0.036096032956217
0.035642233059043
0.035161515729667
0.034654080253849
0.034119911019554
0.033559398566036
0.03297242795711
0.032359733092422
0.031720899253359
0.03105730042581
0.030367699458207
0.029654634841351
0.028914389272987
0.028150986831155
0.041194846474727
0.041169561167278
0.041118376972591
0.041040331852611
0.040934839669569
0.040801780019405
0.040641220850741
0.040453199165858
0.040237659745287
0.039994489749009
0.03972354305675
0.039424677375114
0.039097743736844
0.038742624202952
0.038359180081481
0.037947327634219
0.037506927397304
0.037037959361244
0.036540274656898
0.036013980292783
0.035458879399949
0.034875315229179
0.034262932716961
0.033622516901891
0.03295328390956
0.032256860353056
0.031531322219744
0.03077983732048
0.029997046368034
0.029188004098919
0.042862530887695
0.042836960611829
0.042785178089383
0.04270620375083
0.042599424657131
0.042464682387838
0.042301987682368
0.042111302568378
0.041892482999753
0.041645318998116
0.041369556389196
0.041064937899246
0.040731185841888
0.040368050466977
0.039975243798262
0.039552539033257
0.039099627058845
0.038616343648404
0.038102346481409
0.037557614564078
0.036981721229325
0.036374929926815
0.035736587631804
0.035067508540902
0.034366464168135
0.033635336028779
0.032871397101953
0.032078490262274
0.031249360916427
0.030390159723018
0.044662689185952
0.044637069396366
0.044585163593127
0.044505972876033
0.044398849524464
0.044263586388198
0.044100124575551
0.043908336902719
0.043687974004324
0.043438709911116
0.043160160742199
0.042851930070895
0.042513584095536
0.042144711456844
0.041744841408681
0.041313568983205
0.040850375820328
0.040354913918144
0.039826601399089
0.039265246747432
0.038670139964596
0.0380414224226
0.037378079805302
0.036680919274126
0.035948189529888
0.035182006880486
0.034378728161621
0.033542881973545
0.032665083595858
0.031752577134824
0.04656357494207
0.046538206091035
0.046486789109187
0.046408301736372
0.046302054976115
0.046167784299723
0.046005349380041
0.04581451969419
0.045594924395413
0.045346103209911
0.045067521425876
0.044758619593837
0.044418780626187
0.044047401434606
0.04364379443116
0.043207339651869
0.042737267994024
0.042233004465424
0.041693678328271
0.041118878923578
0.040507555035312
0.039859673963536
0.039173792604358
0.03845065972079
0.037687920090184
0.036887881889606
0.036045878103994
0.03516709519828
0.034239803523124
0.033272259710354
0.04853579839069
0.04851103682131
0.048460826224169
0.048384126058822
0.048280205020879
0.048148734447975
0.047989481773086
0.047802099838912
0.04758608113161
0.047340813761263
0.047065592694107
0.046759673253601
0.046422229388051
0.046052437121166
0.045649358928338
0.045212123056406
0.044739668163008
0.044231147051735
0.043685349283486
0.043101591473524
0.042478420530203
0.041815568738231
0.041111093033351
0.040365617631205
0.039576101416699
0.038744976359176
0.037866448943497
0.036946293882328
0.035970241112024
0.034947389935487
0.05055220763139
0.050528450845062
0.050480247851759
0.05040654952269
0.050306584363578
0.050179954040922
0.050026324096838
0.049845219959041
0.049635986171757
0.04939784632107
0.049129908820083
0.048831223787637
0.048500733354798
0.048137366225061
0.047739904607792
0.04730718996427
0.046837829247407
0.046330657960356
0.045784075827619
0.045197070184548
0.044567724485169
0.043895467427912
0.043177783543842
0.042415091537147
0.041603581570721
0.040745716221054
0.03983447945732
0.038876119161689
0.037853650006641
0.036776747812836
0.052587912086471
0.052565585073594
0.05252024803602
0.052450855588504
0.052356600455767
0.052237011513004
0.052091645630363
0.051919893314211
0.051720943565288
0.051493846701168
0.051237514029366
0.050950776714701
0.050632327023635
0.050280823733944
0.049894743110686
0.049472608747208
0.049012660670187
0.048513374357665
0.047972712851581
0.04738927708482
0.046760627323875
0.04608581456716
0.045361678818087
0.044588339303169
0.043761136863059
0.042882445456563
0.04194393780278
0.040952174052237
0.03988730028038
0.038759199230164
0.054620370388204
0.05459991080305
0.054558324730567
0.054494585198323
0.054407856323135
0.054297593689581
0.054163242041744
0.054004053745135
0.053819059677112
0.053607133518608
0.05336698449013
0.053097216981882
0.052796263200176
0.05246249698572
0.052094069234618
0.051689160380914
0.051245614946403
0.050761510536307
0.050234332630633
0.049662240949225
0.049042217721333
0.048372859477735
0.047650293670875
0.046874234868166
0.046039097683445
0.045147024657529
0.044188298710546
0.04316958410514
0.042068029209449
0.040893246171087
0.056629487373312
0.05661133002164
0.056574375893425
0.056517633058438
0.056440246271803
0.056341600283916
0.056221028229503
0.05607764591726
0.055910329135019
0.05571777772143
0.055498500617338
0.055250874769033
0.054973069673363
0.054663167629296
0.054318985132011
0.053938342421832
0.053518668484792
0.053057612637891
0.052552150784963
0.051999951860412
0.051397373529844
0.050742481919178
0.050030631255869
0.049261019017515
0.048427065213779
0.047530515829367
0.046560197689813
0.045522626136198
0.04439184953592
0.0431766199564
0.058597692097609
0.058582254623916
0.058550779985028
0.058502329708014
0.058436040881672
0.05835123252435
0.058247130469404
0.058122720651382
0.057976732782111
0.057807702223403
0.057613946747083
0.057393623092988
0.057144644203663
0.056864803325164
0.056551583508262
0.056202439281267
0.055814375940192
0.055384593541614
0.054909537943256
0.05438634617924
0.053810716445341
0.053180112923031
0.052489067932534
0.051736146039026
0.050913716771077
0.050022948035465
0.049051161838065
0.048004427423552
0.046853622021852
0.045605934867873
0.060509975746855
0.060497645579075
0.060472438764518
0.060433489773256
0.060379941076253
0.060311053888448
0.060225955058686
0.06012351216911
0.060002323654009
0.059860776349502
0.05969701339408
0.059508986751154
0.059294368156473
0.059050674188364
0.058775066412103
0.058464639191079
0.05811597959786
0.057725830951352
0.057290102252889
0.056805368995516
0.056266650100258
0.05567074463915
0.055011329580746
0.054286221873696
0.053486702886034
0.052613169559671
0.051651415627768
0.050606731739184
0.049446789971866
0.048176396212732
0.062353879051798
0.06234500275055
0.062326770867912
0.06229841128693
0.062259086407546
0.06220800938669
0.062144219612382
0.062066482536864
0.061973285541977
0.061862888909491
0.061733284620898
0.061582243392492
0.06140722030137
0.061205477803496
0.060973879103819
0.060709176066376
0.060407556123668
0.060065312614867
0.059677827925204
0.05924110087197
0.058749468919156
0.058199016403591
0.05758255128261
0.056897034119777
0.056132639862109
0.055288794835688
0.05434977412885
0.053319734702299
0.05216316873038
0.050881564716911
0.064119425638178
0.06411430025925
0.06410365223853
0.064086823713058
0.064063012353179
0.064031394632362
0.063990936686108
0.063940321962184
0.063877951779692
0.063801987067065
0.063710297854884
0.063600504201925
0.063469877448041
0.063315458588047
0.063133846509541
0.062921480987419
0.062674181464324
0.062387813215266
0.062057257214436
0.061677939563485
0.061243531286303
0.060749371955573
0.060187408463966
0.059553655582801
0.058837186363065
0.058036253732737
0.057133647192844
0.056132014615917
0.054992808516608
0.053713157055889
0.065799006189682
0.065797872307038
0.065795305122778
0.065790784291398
0.065783558156049
0.065772777308529
0.065757350430592
0.065735902273282
0.065706777093872
0.065668068632279
0.065617559537145
0.065552755566217
0.065470783273805
0.06536850323002
0.065242293649239
0.065088325848552
0.064902095170433
0.064679078192457
0.064413692654725
0.064100817897407
0.063733485790686
0.063306288685908
0.062810329027277
0.062240628275452
0.061585181782711
0.060840909460467
0.059989146238921
0.059030595919861
0.057923910756605
0.056660873207477
0.067387211606747
0.067390256366272
0.067396155392226
0.067404545530588
0.067414739717369
0.067425878234455
0.067436831577745
0.067446189317212
0.067452268447151
0.067453131165379
0.067446513263535
0.067429848719509
0.067400163314998
0.067354183962489
0.067288118949876
0.067197926095137
0.067078831058091
0.06692597938673
0.066733375177888
0.066495406789373
0.066204498177426
0.065854537101308
0.065435772871511
0.064942254953758
0.064360875648269
0.063687239955162
0.062901232715286
0.062001224978369
0.060943173030557
0.059710961223429
0.068880627046952
0.06888799105109
0.068902637220397
0.068924371965362
0.068952588400717
0.068986434053274
0.069024761313872
0.06906614883682
0.069108915227487
0.069151126051983
0.069190514887497
0.069224491966209
0.069250033188939
0.069263783706785
0.069261840312345
0.069240008680925
0.069193310279815
0.069116629468941
0.069003620820762
0.068848265346231
0.068642421026762
0.068379378020637
0.068048484154734
0.067642953266787
0.067148319742236
0.066559180326178
0.065853719312696
0.065028692265555
0.064036837050774
0.062853197807597
0.070277580724383
0.070289357604589
0.070312946861242
0.070348317946814
0.070394951122106
0.07045202094081
0.070518382724925
0.070592634407812
0.070673127652036
0.070757957427675
0.070844891758535
0.070931361947398
0.071014353720393
0.0710904886059
0.071155822447214
0.071206067461421
0.071236124040475
0.071240678303457
0.071213133343807
0.071147135327665
0.071034075520511
0.070866766776496
0.070633674369613
0.070327431101808
0.069931755177039
0.069440811251886
0.068829340271581
0.068095565257269
0.067185691505774
0.066072952097661
0.07157793663516
0.07159409532804
0.071626678011603
0.071675829988912
0.071741105440207
0.071821687547665
0.071916431645592
0.072024004430181
0.072142861428461
0.072271162789513
0.072406722540769
0.072547000900362
0.072689043483747
0.072829507268837
0.072964491700147
0.073089660981872
0.07319990005523
0.073289718293112
0.073352427938735
0.073381304091966
0.073367531751114
0.07330333042566
0.073176701903655
0.072979580414579
0.07269427261915
0.072314579499382
0.071809798144613
0.071180943819309
0.070359797047265
0.069340800998682
0.072783130597474
0.072803324873641
0.072844505313393
0.072907194897614
0.072991062155298
0.073095180320504
0.073218299976226
0.073359197064903
0.073516500348262
0.07368853496543
0.073873228674865
0.074068072573758
0.074270175741316
0.074476253144702
0.074682512553654
0.074884594443304
0.075077476249593
0.075255460220503
0.07541198560573
0.075539754931931
0.075630222802109
0.075674351700138
0.075660885116756
0.075579331226829
0.075413855176569
0.075154130398236
0.074771413552533
0.074257537613639
0.07353054967701
0.072583931427707
0.073896676790872
0.073920326134251
0.073969058610438
0.074044241984598
0.074145797927697
0.074272634998753
0.074423082584822
0.074596449756906
0.074791309301654
0.075006074519526
0.075238908685523
0.075487524186746
0.075749190360794
0.076020730442259
0.076298533864944
0.076578284827667
0.07685513767665
0.077123212320879
0.077376258964544
0.077606365738655
0.077805732071296
0.077963435092392
0.078070339009786
0.078110874995397
0.078076036761445
0.077942467590363
0.077703668878046
0.077317182682018
0.07674475158789
0.07580254296694
0.025238897614991
0.02463514643776
0.024018178467076
0.02338909189448
0.022748916923421
0.022098474096051
0.021438420123071
0.020769349708247
0.02009187860511
0.019406681356851
0.018714488305328
0.018016064248145
0.017312190868519
0.016603659733381
0.015891272194753
0.015175840916437
0.014458190572244
0.013739156640992
0.013019583559239
0.012300322705155
0.011582232215088
0.010866178856309
0.010153046648564
0.0094437476940535
0.0087392253079785
0.0080401522010222
0.0073471709563276
0.0066611052169882
0.0059828280600607
0.0053131802831574
0.004652949335988
0.0040028770272189
0.0033636694467894
0.0027360072329569
0.0021205449087085
0.0015179128596381
0.00092870658685738
0.00035349438788647
-0.00020720026773747
-0.0007528754159972
-0.0012830888814665
-0.0017974030891445
-0.0022954717648492
-0.0027769113803533
-0.0032414994663506
-0.0036888800850599
-0.0041190210587562
-0.0045315506981124
-0.0049268231686616
-0.005304479774067
0.025484007045099
0.024873021188874
0.024247049133472
0.02360852606188
0.022959057205914
0.022299430803087
0.02163001147692
0.020951115289032
0.020263205431653
0.019566917348667
0.018862992963382
0.018152210123846
0.017435351351809
0.016713205250407
0.015986577151087
0.015256295849364
0.014523214625739
0.013788208704647
0.013052171034613
0.012316007942549
0.011580632945051
0.010846957611742
0.010115871456945
0.0093882145492483
0.008664753846989
0.0079465844391669
0.0072348272808603
0.0065303672574208
0.0058340080708562
0.0051465528485725
0.0044688120125032
0.0038015913299523
0.0031456753430776
0.002501821663205
0.0018707489484193
0.0012531456015769
0.00064965317885266
6.0888671382824e-05
-0.00051259344460806
-0.0010702478671038
-0.0016116232482593
-0.0021362362870028
-0.0026437643641285
-0.0031337550191197
-0.0036060640652195
-0.0040601865201022
-0.0044962479632312
-0.0049134517308814
-0.0053122677345835
-0.0056906802420969
0.025944011715092
0.025312208759012
0.024661432595718
0.023997160489153
0.023322441588526
0.02263817001748
0.021944237922412
0.021240507629103
0.020527240561682
0.019805086799256
0.019074886049474
0.018337497453745
0.01759374322489
0.016844428311964
0.016090372808259
0.0153324286083
0.014571480788172
0.013808441319274
0.013044241070478
0.012279823181972
0.01151613904093
0.010754146813094
0.0099948153310594
0.0092391354548744
0.0084881395598865
0.0077427871212336
0.0070040022647678
0.0062727175393389
0.0055498444111711
0.0048362735587811
0.0041328761935778
0.0034405048570684
0.0027599804260967
0.0020920945911332
0.0014375925713683
0.00079719174962718
0.00017154912417647
-0.00043869218091313
-0.0010329770687734
-0.0016107289551402
-0.0021715192454325
-0.0027148118250664
-0.0032403509916509
-0.0037475707910213
-0.0042364824767271
-0.0047063043712451
-0.0051574747928266
-0.0055884151539489
-0.0059999340945396
-0.0063870385852454
0.026594161976503
0.025929016857259
0.025239278564614
0.024535285552512
0.023822255191864
0.023101135408862
0.022371029627468
0.021631096334985
0.020881300981306
0.020122320371571
0.019355130645515
0.018580689135511
0.017799846481749
0.017013398847264
0.016222154796757
0.015426966699037
0.014628732797645
0.013828386678327
0.01302688562017
0.012225203169522
0.011424325667569
0.010625250718544
0.0098289838494808
0.0090365315820836
0.0082488876244227
0.0074670425154189
0.0066919824911197
0.0059246798517199
0.0051660902957106
0.0044171506311915
0.0036787693551931
0.0029518298302544
0.002237177299629
0.0015356315242433
0.00084796023794879
0.00017491283536436
-0.00048283671785824
-0.0011246076406913
-0.0017498413661963
-0.0023579083181365
-0.0029484039707674
-0.003520700607883
-0.0040746272195578
-0.0046094320800729
-0.0051253411747924
-0.0056211400426331
-0.0060977085300732
-0.0065522381819258
-0.0069859166926734
-0.0073889154355233
0.027419838481175
0.026710716600864
0.025969636977201
0.025213673137458
0.02445091238799
0.023682246605248
0.022905634785187
0.022119275515445
0.021322757914506
0.020516813818357
0.019702605097202
0.018881210661463
0.018053504895954
0.017220258741406
0.016382254041559
0.015540333658646
0.014695402540813
0.01384841011286
0.013000332633274
0.012152162682483
0.011304904879756
0.010459573994029
0.0096171920913426
0.0087787851020724
0.0079453791130611
0.0071179989114643
0.0062976620244103
0.0054853738530672
0.0046821197953088
0.0038888655491721
0.0031065464892061
0.0023360752778941
0.0015783226559761
0.00083413941476514
0.00010431570274962
-0.00061036403762353
-0.0013092107067582
-0.0019914990307459
-0.0026566714588392
-0.0033040312872673
-0.003933210526286
-0.0045434598681322
-0.005134723447416
-0.0057059964268106
-0.0062577895566305
-0.0067882937362036
-0.0072989744062309
-0.0077853514140357
-0.0082491478522011
-0.0086740615308951
0.028411699862226
0.027649045531097
0.026845083407951
0.026025685451244
0.025202555564212
0.024376388761889
0.02354361394065
0.022701213901453
0.021848340743782
0.020985830029287
0.02011509155504
0.019237354979117
0.018353516051124
0.017464306767499
0.01657047090074
0.01567283542848
0.014772308377535
0.013869851347997
0.012966454356303
0.012063122721714
0.011160873418366
0.010260735046551
0.0093637464240068
0.0084709540383984
0.007583406993398
0.0067021506313548
0.0058282216806423
0.0049626455158027
0.0041064269411022
0.0032605531346375
0.0024259794203796
0.0016036418828761
0.00079442963401553
-7.8122512122251e-07
-0.0007811868058614
-0.0015459719859651
-0.002294442762733
-0.0030258299419803
-0.0037395906251646
-0.0044349530558317
-0.0051116078780596
-0.0057686586101098
-0.0064062076366733
-0.0070229322148394
-0.0076197192873604
-0.0081940054081251
-0.0087480245306561
-0.0092751701092951
-0.0097778810754507
-0.010231560838006
0.02956347381402
0.028738461315704
0.027860599473822
0.02696686718011
0.026073368802426
0.025180400391315
0.024282421319657
0.023374930771249
0.022456597803619
0.021528427418934
0.020592146688741
0.019649164251069
0.018700392043742
0.01774650750314
0.016788204694538
0.015826289515815
0.014861670801529
0.01389531994918
0.012928237247004
0.011961436146996
0.010995940751742
0.010032787783813
0.0090730257800341
0.0081177123018202
0.0071679074910781
0.0062246685116074
0.0052890438456198
0.0043620715305016
0.0034447681263596
0.0025381345562216
0.0016431371752918
0.00076072704130277
-0.0001081984832085
-0.00096274559691627
-0.0018021073199429
-0.0026254435345789
-0.0034320680910098
-0.0042211691096176
-0.0049922356353964
-0.0057444131387162
-0.0064774793691558
-0.0071903639356659
-0.0078833820578219
-0.008554824062965
-0.0092060651103147
-0.0098336124423482
-0.010440683788909
-0.011018038678899
-0.011569035964646
-0.012058741070633
0.030871512174267
0.029975909399517
0.029013490332124
0.028034939289702
0.027061584001827
0.02609304064622
0.025121292906294
0.02414007606626
0.023147550007095
0.022144975227559
0.021134473824255
0.020117660468447
0.019095454059388
0.018068460639196
0.017037314975268
0.01600279951683
0.014965824377725
0.013927370470509
0.012888445847477
0.01185006790988
0.010813262682396
0.0097790690678089
0.0087485387792425
0.0077227337050258
0.0067027185617521
0.0056895554713578
0.0046842971825662
0.0036879864696169
0.0027016426107222
0.0017262711094137
0.00076283869895425
-0.00018769844784495
-0.0011244466177974
-0.0020465040778581
-0.0029530750394891
-0.0038433026469921
-0.0047165262931694
-0.0055718959085738
-0.0064089574213151
-0.0072267687305751
-0.0080252346018291
-0.0088030847054311
-0.0095609188998245
-0.010296565009331
-0.011012024279419
-0.011702676749161
-0.012372979973569
-0.013010491420833
-0.013619753874172
-0.01415326450024
0.032334041368557
0.031360083475889
0.030302661627685
0.02922909539974
0.028166791945076
0.02711430979375
0.026060578340712
0.024997281320286
0.023922070439327
0.02283657259698
0.021743390264981
0.020644367837373
0.019540418313852
0.018432058979372
0.017319857854667
0.016204575265451
0.015087126003627
0.01396850194262
0.012849717834944
0.011731791972753
0.010615748132196
0.0095026228059134
0.0083934659019287
0.0072893382091979
0.0061913029838489
0.0051004197906839
0.0040177371175803
0.0029442934718246
0.0018811003347417
0.00082915668880385
-0.00021058327862767
-0.0012371705980195
-0.0022497307429241
-0.0032473667785777
-0.0042293129095166
-0.0051947078712265
-0.0061429414375939
-0.0070731338695817
-0.0079849227173838
-0.0088772764088181
-0.0097502807074368
-0.010602438662106
-0.011434727912214
-0.012244430903085
-0.01303434836374
-0.013798514915316
-0.014542945506763
-0.01525137440159
-0.015929867460983
-0.016515884538168
0.033950477511752
0.032890778027548
0.031728028131607
0.030549473405087
0.029389473701323
0.028245033393385
0.027101371462995
0.02594783515753
0.024781607041561
0.023604818729797
0.022420644252597
0.021231175497797
0.020037300427456
0.018839429942721
0.017638062061817
0.016433940531954
0.015227991454271
0.014021221277104
0.012814651463965
0.011609299322051
0.010406183815111
0.009206335908941
0.0080107997562438
0.0068206298963175
0.0056368817364024
0.0044606042051428
0.003292832381742
0.002134590521793
0.00098687076928908
-0.00014934636490271
-0.0012731342595452
-0.0023835660003608
-0.0034798055027719
-0.0045609770336611
-0.0056263694213323
-0.0066751328557344
-0.0077067401386348
-0.0087202941622626
-0.0097155709143564
-0.010691449764025
-0.011648270142812
-0.012584279605122
-0.013500956573095
-0.014394941932173
-0.015270057154272
-0.016118737295079
-0.016948947858528
-0.017739889258497
-0.018499584789312
-0.019147712070953
0.035720870912984
0.034568372627697
0.033290053587799
0.031996755792066
0.03073065278525
0.029486553449192
0.028245233956785
0.02699343752356
0.025727965902752
0.024451624488095
0.023168251728179
0.021880194304548
0.020588290252309
0.01929282775296
0.017994236476417
0.016693254914997
0.015390830883845
0.014087990846428
0.012785764624219
0.011485168141076
0.01018721441268
0.0088929274900527
0.0076033436623512
0.0063195075587066
0.0050424609994089
0.0037732327616606
0.0025128347061011
0.0012622669253105
2.2489663551701e-05
-0.0012055490209265
-0.0024209675500267
-0.0036228778547887
-0.0048105055113419
-0.0059830155692649
-0.0071397827081241
-0.0082799889032902
-0.0094032329450098
-0.010508616330175
-0.011596115675954
-0.012664523402702
-0.013714529384289
-0.014744092752
-0.015755354946621
-0.016744202372563
-0.017715765824195
-0.018660581107823
-0.019589075131762
-0.020475096943319
-0.021329230586257
-0.022050292109433
0.037645411874313
0.036393377300589
0.034989351585536
0.033571824753043
0.032191592426295
0.030840455331357
0.029493943789277
0.028135968752636
0.026763103896812
0.025379027823167
0.023988332305089
0.022593612149159
0.021195623226334
0.019794518193623
0.018390668569215
0.016984825542226
0.015577973182611
0.014171166049639
0.012765445457679
0.011361827326191
0.009961319484582
0.0085649391807303
0.0071737141541327
0.0057886788261891
0.0044108607049546
0.003041254722414
0.0016808390812285
0.00033058018869381
-0.0010086067839864
-0.002335821469718
-0.0036502481428902
-0.0049510573189029
-0.0062375639259591
-0.0075089964566638
-0.0087648546894909
-0.010004376305343
-0.01122734204018
-0.012432871211086
-0.013621223873424
-0.014791107658359
-0.015943691585677
-0.017076606225891
-0.018192868315123
-0.019287474998729
-0.020367237219268
-0.021420443030104
-0.022460630597447
-0.023455366903336
-0.02441859954881
-0.025224823151751
0.039723988323964
0.03836601863789
0.036826321562082
0.035275450758759
0.033773522828256
0.032308319149254
0.030849267039637
0.029377283919528
0.027888945831728
0.026389033432931
0.024882968517862
0.02337356782346
0.02186146802303
0.020346680587043
0.018829539070233
0.017310833725781
0.015791603939348
0.014272942579857
0.012755908385062
0.01124152192392
0.0097307899598397
0.0082247252568168
0.0067243456943526
0.005230672052013
0.0037447299747367
0.0022674626193333
0.00079981004798204
-0.00065730598277823
-0.0021030326318677
-0.0035365341038372
-0.0049570826117954
-0.0063639285244506
-0.0077565095564142
-0.0091341437996469
-0.010496504377593
-0.011842912003345
-0.013173401633278
-0.014487131368763
-0.015784755516728
-0.017064895763021
-0.018329374413031
-0.019575439226887
-0.020807263653382
-0.022018786518409
-0.023218973050034
-0.02439344327374
-0.025559666472499
-0.02667785683037
-0.027766424621044
-0.028671701821894
0.04195577882125
0.040485864451462
0.038800826968527
0.037108021105342
0.035477403659272
0.033891502682951
0.032312756755098
0.030719031006355
0.029107226750743
0.027483476945293
0.02585408705347
0.024222047291937
0.022587834772559
0.020951325970281
0.019312851120084
0.017673274289919
0.016033713261399
0.014395312359943
0.012759156336665
0.011126279058884
0.0094976958384329
0.0078744244168384
0.0062574805675692
0.0046478676877108
0.0030465608491997
0.0014545075348518
-0.00012739758525891
-0.0016982975014043
-0.0032574222787095
-0.0048040182476789
-0.0063374695507119
-0.0078571295840775
-0.0093625964233589
-0.010853307725624
-0.012329167186297
-0.01378960960464
-0.015235013348285
-0.016664597318644
-0.018079554337791
-0.019478410539155
-0.020863878658247
-0.022232743010875
-0.023590722860367
-0.024930474530207
-0.026263754893917
-0.027572991318785
-0.02888063539279
-0.030138286773935
-0.03137022979562
-0.032390387240726
0.044338896931776
0.042751488178362
0.040911906327006
0.03906929784959
0.037303711387816
0.035590945007621
0.033885573618624
0.03216249335675
0.030419355548079
0.028663907327352
0.026903356245918
0.025140791355288
0.02337649321585
0.021610227555825
0.019842371564783
0.018073906981072
0.016306056464521
0.014540030826883
0.012776953646372
0.011017886000492
0.0092638652737146
0.0075159263996876
0.0057750904236544
0.0040423537146832
0.0023186359404106
0.00060489627280496
-0.0010980325499204
-0.0027893661065566
-0.0044684274831702
-0.0061345606904845
-0.0077872876420275
-0.0094260922439053
-0.011050773311112
-0.012660924097855
-0.014256740361995
-0.015837811698979
-0.017404959113552
-0.01895749236415
-0.020497313264816
-0.022022836915565
-0.023537969125133
-0.025038909345225
-0.026533449216799
-0.028012646919367
-0.029491928406114
-0.030949864167426
-0.032415294656907
-0.033829698023229
-0.03522511275265
-0.036378121208763
0.046870084673559
0.045160181785402
0.043157532156005
0.041158216045469
0.039252254865317
0.037406988233331
0.035568319064118
0.033708445373528
0.031826298789917
0.029931492131542
0.028032103291468
0.026131222151403
0.024228907025864
0.022324862334962
0.02041958196712
0.018514216101236
0.016610120519292
0.014708590421957
0.012810805349458
0.010917873462588
0.0090308743963442
0.0071508764203249
0.0052789182283131
0.0034159992442666
0.0015630462286058
-0.00027904502016674
-0.0021094947853058
-0.0039275856564823
-0.0057327419812327
-0.007524423141619
-0.0093023133479813
-0.011066059713307
-0.012815699651179
-0.014551031185236
-0.016272598491618
-0.017980212240071
-0.019675224953081
-0.02135710668569
-0.023028629437839
-0.02468812085807
-0.02634100745347
-0.027982770928782
-0.02962392920147
-0.031253492151735
-0.032891741513767
-0.034512463876246
-0.036152838620305
-0.037742463922847
-0.039323690359921
-0.04063014442397
0.049544476366185
0.047707723458853
0.045534400720049
0.043372706369691
0.041322022157867
0.039339233946291
0.037360897691296
0.035357025380873
0.033328467192005
0.031286919602333
0.029241232498268
0.027194375738384
0.025146182865808
0.02309637835918
0.021045659821435
0.018995402572939
0.016947125860485
0.014902230734297
0.012861976890959
0.010827546724085
0.0088000896465662
0.006780733444244
0.0047705578895752
0.0027705825494888
0.00078173061291722
-0.0011951390950736
-0.0031592996885191
-0.0051101056467169
-0.0070470889151766
-0.0089698427214012
-0.010878232882975
-0.012772110576558
-0.014651782999987
-0.016517324729243
-0.018369669218385
-0.020208966066138
-0.022037147529115