/*--------------------------------*- C++ -*----------------------------------*\
| =========                 |                                                 |
| \\      /  F ield         | OpenFOAM: The Open Source CFD Toolbox           |
|  \\    /   O peration     | Version:  2112                                  |
|   \\  /    A nd           | Website:  www.openfoam.com                      |
|    \\/     M anipulation  |                                                 |
\*---------------------------------------------------------------------------*/
FoamFile
{
    version     2.0;
    format      ascii;
    arch        "LSB;label=32;scalar=64";
    class       volVectorField;
    location    "17.7";
    object      U;
}
// * * * * * * * * * * * * * * * * * * * * * * * * * * * * * * * * * * * * * //

dimensions      [0 1 -1 0 0 0 0];

internalField   nonuniform List<vector> 
22000
(
(1.0000009705074 -2.5988724917278e-05 0)
(1.0000270215484 -7.8514517008017e-05 0)
(1.0000772414365 -0.00013099983525466 0)
(1.0001527256069 -0.00018335144255684 0)
(1.0002539628745 -0.00023560409509549 0)
(1.0003809079882 -0.000287745089258 0)
(1.0005333052224 -0.00033974067698387 0)
(1.0007109379708 -0.00039159190935924 0)
(1.000913683708 -0.00044330274783879 0)
(1.0011414884566 -0.0004948652387138 0)
(1.001394292404 -0.00054619938030411 0)
(1.0016720075225 -0.00059722669132034 0)
(1.0019744581687 -0.00064780648411386 0)
(1.0023014381337 -0.00069789694062649 0)
(1.002652650558 -0.0007473466508582 0)
(1.0030278339668 -0.00079621197801989 0)
(1.0034266046815 -0.00084425578770478 0)
(1.0038486923036 -0.00089169161034778 0)
(1.0042935954153 -0.00093804523127223 0)
(1.0047610751222 -0.00098388567654013 0)
(1.0052504412826 -0.0010282003040937 0)
(1.005761584603 -0.0010723845811789 0)
(1.0062934955424 -0.0011141845328763 0)
(1.0068463927367 -0.0011568896152195 0)
(1.0074186789295 -0.0011953772413139 0)
(1.0080112801742 -0.0012372811445257 0)
(1.0086214801117 -0.0012708791210124 0)
(1.0092516421028 -0.0013137729717273 0)
(1.0098969201214 -0.0013391053181684 0)
(1.0105625831034 -0.0013872931399073 0)
(1.0000003992947 -7.6343575785846e-05 0)
(1.0000262778317 -0.00023089459334602 0)
(1.0000764854669 -0.00038548498265889 0)
(1.000152050033 -0.00053977271217292 0)
(1.0002535157108 -0.0006938209378436 0)
(1.0003809011894 -0.00084756973001771 0)
(1.0005339811017 -0.0010009177452538 0)
(1.0007125564539 -0.0011538829967993 0)
(1.000916509924 -0.0013064972440246 0)
(1.0011458128019 -0.0014587492446535 0)
(1.0014004141044 -0.0016104057088593 0)
(1.0016802683646 -0.0017612282101439 0)
(1.0019851941705 -0.0019107963973582 0)
(1.0023150487422 -0.0020589784567415 0)
(1.0026694930624 -0.0022053306229526 0)
(1.0030483787215 -0.0023500105850231 0)
(1.003451205586 -0.0024923315467154 0)
(1.0038779275489 -0.0026329022711252 0)
(1.0043277637365 -0.0027703547200247 0)
(1.0048009405924 -0.0029063146462208 0)
(1.0052961325844 -0.0030378746793167 0)
(1.0058142192736 -0.0031690224203735 0)
(1.0063527877341 -0.003293313224019 0)
(1.0069141751874 -0.0034201299331058 0)
(1.0074937392621 -0.0035348741232429 0)
(1.0080969348533 -0.0036592638127295 0)
(1.0087145309733 -0.003759996649445 0)
(1.0093585299005 -0.0038870080252195 0)
(1.0100103116036 -0.0039642497358226 0)
(1.0106957229131 -0.0041060097553215 0)
(1.0000004104541 -0.00012423970679226 0)
(1.000027012197 -0.00037611056410946 0)
(1.0000785431216 -0.00062819719094686 0)
(1.0001559247478 -0.00087988257738239 0)
(1.0002596345661 -0.0011312333107094 0)
(1.0003896728096 -0.0013821173725698 0)
(1.000545810984 -0.0016323700608574 0)
(1.0007278677193 -0.0018820626094813 0)
(1.0009357390468 -0.0021312997371962 0)
(1.0011694404451 -0.0023801023119549 0)
(1.0014289390729 -0.0026281000101618 0)
(1.0017142572883 -0.0028749014211796 0)
(1.0020252089202 -0.0031198056336931 0)
(1.0023617522335 -0.0033625983112826 0)
(1.0027234891326 -0.0036025443470148 0)
(1.0031104520867 -0.0038399207604851 0)
(1.0035219661224 -0.0040735864460691 0)
(1.003958344962 -0.0043045740282412 0)
(1.004418370924 -0.0045305958370912 0)
(1.0049030238498 -0.0047543875426256 0)
(1.0054099542417 -0.0049710781145738 0)
(1.0059416681164 -0.0051873643643158 0)
(1.0064934272298 -0.0053924469097675 0)
(1.0070711260086 -0.0056020659303522 0)
(1.007664935171 -0.0057917603669964 0)
(1.0082880993101 -0.0059979303874034 0)
(1.0089199582855 -0.0061647922621024 0)
(1.0095895715314 -0.0063759834266484 0)
(1.0102533661432 -0.0065041859942023 0)
(1.0109749061874 -0.0067407051119622 0)
(1.0000004035856 -0.00017052067170366 0)
(1.0000277102431 -0.0005165664432574 0)
(1.0000806270727 -0.00086288933304361 0)
(1.0001600471194 -0.0012086302244761 0)
(1.0002664097358 -0.0015538875281641 0)
(1.0003996818991 -0.0018984565827874 0)
(1.000559604366 -0.0022421285717264 0)
(1.0007460022892 -0.0025850838443702 0)
(1.0009587851324 -0.0029275659602286 0)
(1.001198031942 -0.0032696819313238 0)
(1.0014637387636 -0.0036109509559373 0)
(1.0017560251816 -0.0039508445490237 0)
(1.00207470031 -0.0042883819206927 0)
(1.0024198652062 -0.0046232822203801 0)
(1.0027910421028 -0.0049545178207353 0)
(1.0031885192322 -0.0052825174888122 0)
(1.0036113822735 -0.0056056711968835 0)
(1.004060451601 -0.005925488986387 0)
(1.0045339061864 -0.0062387088453521 0)
(1.0050337822688 -0.0065492775022305 0)
(1.0055563087864 -0.0068502231958237 0)
(1.0061062667345 -0.0071511701225511 0)
(1.0066756827379 -0.0074366489136884 0)
(1.0072754198364 -0.0077292385897635 0)
(1.0078884276183 -0.0079938971711045 0)
(1.0085388237154 -0.0082827735135992 0)
(1.0091900471182 -0.0085159807777186 0)
(1.0098949530525 -0.0088132399443613 0)
(1.0105752869036 -0.0089923339079812 0)
(1.0113471682739 -0.0093269242842675 0)
(1.0000003913493 -0.000215251698934 0)
(1.0000284157055 -0.00065259366190355 0)
(1.0000827610843 -0.0010901885767164 0)
(1.000164299396 -0.0015269265327954 0)
(1.0002734399925 -0.0019629582165236 0)
(1.000410116055 -0.0023980076072852 0)
(1.0005740282099 -0.0028318524361829 0)
(1.0007650061293 -0.0032648590407253 0)
(1.0009829756038 -0.0036974976673337 0)
(1.0012280990998 -0.004130031591016 0)
(1.0015004153048 -0.0045619018063083 0)
(1.0018001729852 -0.0049924595981141 0)
(1.0021271827595 -0.0054204413627132 0)
(1.0024817317855 -0.0058455171879654 0)
(1.0028632504912 -0.0062663632827323 0)
(1.0032723554542 -0.0066836001506062 0)
(1.0037078427376 -0.0070951285480392 0)
(1.0041711759853 -0.007503003212125 0)
(1.0046597917554 -0.007902915658263 0)
(1.0051770569921 -0.0083001525550853 0)
(1.0057174388605 -0.0086854632944517 0)
(1.0062885707448 -0.0090716801772469 0)
(1.0068784581528 -0.0094382568070124 0)
(1.007504175339 -0.0098152334914536 0)
(1.0081396898731 -0.010156062274934 0)
(1.0088226819653 -0.010530023700015 0)
(1.0094968116098 -0.0108310451519 0)
(1.0102445583392 -0.011218022778177 0)
(1.0109445415407 -0.011449194279793 0)
(1.0117782104845 -0.011887496705135 0)
(1.0000003728566 -0.00025840092529515 0)
(1.000029059446 -0.00078414858594746 0)
(1.0000847358128 -0.0013100558533624 0)
(1.0001682430042 -0.0018347517031899 0)
(1.0002799561265 -0.0023584556978228 0)
(1.0004197732092 -0.002880815600622 0)
(1.0005873522878 -0.0034016281006192 0)
(1.0007825323087 -0.0039215334665161 0)
(1.0010052629368 -0.0044413297586492 0)
(1.0012558109543 -0.0049615164651379 0)
(1.0015342734069 -0.0054814923458441 0)
(1.0018410599786 -0.0060005062402374 0)
(1.0021759935377 -0.0065170076981704 0)
(1.0025395899013 -0.007030637005529 0)
(1.0029311840701 -0.0075397709657041 0)
(1.0033517888798 -0.0080452673053449 0)
(1.0037998761996 -0.0085445167542598 0)
(1.0042776753611 -0.009040194540422 0)
(1.0047817729537 -0.009526867857619 0)
(1.0053171049009 -0.010011306847575 0)
(1.0058761026575 -0.010481787750854 0)
(1.0064697425676 -0.010954662038448 0)
(1.0070813655195 -0.011403860159831 0)
(1.0077352996595 -0.011867571799581 0)
(1.0083950768889 -0.012286726189845 0)
(1.009114176071 -0.012749261873082 0)
(1.0098132804901 -0.013120624277054 0)
(1.0106093112108 -0.01360229415424 0)
(1.0113308315344 -0.013887823344666 0)
(1.0122351735984 -0.014437050640976 0)
(1.0000003463162 -0.00029983914494646 0)
(1.0000295482253 -0.00091087150349017 0)
(1.0000862811887 -0.0015219024176417 0)
(1.0001713453531 -0.002131291062456 0)
(1.000285078485 -0.0027393428521472 0)
(1.0004273431555 -0.0033456219226269 0)
(1.0005977532247 -0.0039499786239158 0)
(1.00079616187 -0.0045534238877228 0)
(1.001022551437 -0.0051571956250245 0)
(1.0012773139094 -0.0057621180603369 0)
(1.0015606223635 -0.0063675884657813 0)
(1.0018730782891 -0.0069727732806784 0)
(1.0022145317252 -0.0075758328672617 0)
(1.0025857675948 -0.0081763992921695 0)
(1.0029860304856 -0.0087725501296304 0)
(1.003416791042 -0.0093654295896634 0)
(1.0038761795147 -0.0099519019907336 0)
(1.0043672963127 -0.010535342220737 0)
(1.0048858056852 -0.011109119778631 0)
(1.0054384092466 -0.011681633770372 0)
(1.006015302423 -0.012238498319236 0)
(1.0066311990112 -0.01279989488985 0)
(1.0072642891321 -0.013333792404295 0)
(1.0079469772835 -0.013887212853021 0)
(1.0086312517394 -0.014387557094677 0)
(1.0093881334304 -0.01494293285072 0)
(1.0101128846544 -0.015388024493603 0)
(1.0109605956512 -0.015970274444287 0)
(1.0117044968534 -0.016313436164876 0)
(1.0126859541377 -0.016981823863522 0)
(1.0000003103007 -0.0003393526252379 0)
(1.000029793565 -0.0010321362769624 0)
(1.000087137823 -0.0017246893603174 0)
(1.0001730959909 -0.0024150924450297 0)
(1.0002879681893 -0.0031037546214394 0)
(1.0004315811778 -0.0037901498545335 0)
(1.0006035028389 -0.0044742209707979 0)
(1.0008036048705 -0.0051574534692238 0)
(1.0010319117421 -0.0058416451958366 0)
(1.0012889606781 -0.0065280397483678 0)
(1.0015750198904 -0.0072160781304246 0)
(1.0018909115839 -0.0079048667228908 0)
(1.0022365315218 -0.0085922777045648 0)
(1.0026129706103 -0.0092779584605982 0)
(1.0030193967492 -0.0099596931218013 0)
(1.0034577917551 -0.010638963238827 0)
(1.0039259450369 -0.011312098970111 0)
(1.0044279136094 -0.011983252283048 0)
(1.0049584050995 -0.012644535373758 0)
(1.0055260370426 -0.013306111976632 0)
(1.0061186497972 -0.013950770305239 0)
(1.0067549819148 -0.014602805326196 0)
(1.0074077611356 -0.015223836076638 0)
(1.0081180519096 -0.015870334325295 0)
(1.0088255632501 -0.01645527053392 0)
(1.0096200707769 -0.017108285386889 0)
(1.0103697817954 -0.017631241629742 0)
(1.0112705124254 -0.018320602611602 0)
(1.0120366363319 -0.018725672675525 0)
(1.0130991564987 -0.019522144742246 0)
(1.0000002644333 -0.00037667422239679 0)
(1.0000297189084 -0.0011471452336741 0)
(1.0000870812232 -0.0019170865017599 0)
(1.000173053282 -0.0026842916397166 0)
(1.0002878945822 -0.0034492926126724 0)
(1.0004313934519 -0.0042114687217521 0)
(1.0006030703324 -0.0049708980452968 0)
(1.0008028199046 -0.0057296492949196 0)
(1.0010307190263 -0.006490205374003 0)
(1.0012874687517 -0.0072543272795172 0)
(1.0015734525488 -0.0080215487417518 0)
(1.0018897393855 -0.0087909403468522 0)
(1.0022362924194 -0.0095600918345834 0)
(1.0026145401018 -0.010328690729268 0)
(1.0030235955396 -0.011094241198932 0)
(1.0034659945263 -0.011858612208723 0)
(1.0039392052182 -0.012617605080978 0)
(1.0044483035223 -0.013376219301506 0)
(1.0049870468557 -0.014125273779298 0)
(1.0055660668265 -0.01487681072014 0)
(1.0061708163223 -0.015610674853448 0)
(1.0068242307617 -0.016355503161044 0)
(1.00749344847 -0.017066271457221 0)
(1.008228520001 -0.017809391009489 0)
(1.0089565389783 -0.018482699887147 0)
(1.0097866826505 -0.019238451476556 0)
(1.0105593213325 -0.019844051814347 0)
(1.0115123254855 -0.020647427495649 0)
(1.0122995216264 -0.021119686977764 0)
(1.0134445064477 -0.022053488659379 0)
(1.0000002075774 -0.00041150928523901 0)
(1.0000292601032 -0.0012550054162625 0)
(1.0000859290358 -0.0020976016645061 0)
(1.0001708533938 -0.0029367988138741 0)
(1.0002842463351 -0.003773271513275 0)
(1.00042585516 -0.0046063009116442 0)
(1.0005951529611 -0.0054361450203763 0)
(1.0007920619184 -0.0062655656847754 0)
(1.0010167217575 -0.0070978576797664 0)
(1.001270013212 -0.007935398261967 0)
(1.0015524546263 -0.0087778660999985 0)
(1.0018653831578 -0.0096243216557817 0)
(1.002208853322 -0.010472083938159 0)
(1.0025846559508 -0.011320906019366 0)
(1.0029918787042 -0.012168035386221 0)
(1.0034336411542 -0.013015775307736 0)
(1.0039071279715 -0.013859420917099 0)
(1.004418469991 -0.014704877455579 0)
(1.0049605221266 -0.015541667828953 0)
(1.0055459719747 -0.016383793104367 0)
(1.006157942677 -0.017208103636068 0)
(1.0068236148767 -0.018047725354351 0)
(1.0075046042724 -0.018850835585163 0)
(1.0082600054476 -0.019694087747043 0)
(1.0090043700391 -0.020459777250409 0)
(1.0098663407271 -0.021323435224218 0)
(1.0106585483293 -0.022016996800607 0)
(1.0116609865646 -0.022941396020298 0)
(1.0124671148958 -0.023487115919115 0)
(1.013693404444 -0.024567452699976 0)
(1.0000001398339 -0.00044355881285496 0)
(1.0000283678975 -0.0013548018062498 0)
(1.0000835348517 -0.0022647073088216 0)
(1.0001662019953 -0.0031704796851588 0)
(1.0002765293556 -0.0040729540827127 0)
(1.0004142212228 -0.0049713095796914 0)
(1.0005787042539 -0.0058660288669715 0)
(1.0007699310163 -0.006760674749379 0)
(1.0009881126478 -0.0076594789013651 0)
(1.0012343206367 -0.0085655314816899 0)
(1.0015092263748 -0.0094787104132637 0)
(1.0018144509181 -0.01039809243117 0)
(1.0021501649302 -0.011320744518821 0)
(1.0025185377121 -0.012246510370507 0)
(1.0029186670412 -0.013172415676194 0)
(1.0033542712235 -0.014101239387675 0)
(1.0038223062516 -0.015027814342864 0)
(1.0043299649017 -0.01595899252735 0)
(1.0048692876977 -0.016883040225347 0)
(1.0054550009041 -0.017815953350194 0)
(1.0060680450424 -0.018731622729402 0)
(1.0067397692447 -0.019667703867318 0)
(1.007426525544 -0.020565598617254 0)
(1.0081962387507 -0.021512263056361 0)
(1.0089514063871 -0.02237441649781 0)
(1.0098396158006 -0.023350998578332 0)
(1.0106467277987 -0.024138260780126 0)
(1.0116936847638 -0.025190532512697 0)
(1.012515604676 -0.025816941172129 0)
(1.0138194877549 -0.027052631597488 0)
(1.0000000613356 -0.00047254505874239 0)
(1.0000270077503 -0.001445676370975 0)
(1.0000797941476 -0.0024169697648075 0)
(1.0001588885038 -0.0033833306201616 0)
(1.0002643909579 -0.0043457694639555 0)
(1.0003959600177 -0.0053033588141996 0)
(1.0005529766742 -0.0062568496779547 0)
(1.0007354248023 -0.0072107086461228 0)
(1.0009435935312 -0.0081702243292607 0)
(1.0011787506823 -0.0091392912794965 0)
(1.0014417350582 -0.01011804172334 0)
(1.0017344590639 -0.011105594415921 0)
(1.0020572337197 -0.012098790262262 0)
(1.0024126128923 -0.013097587238378 0)
(1.0027997443021 -0.014098836919931 0)
(1.0032229433663 -0.015105827358452 0)
(1.0036790070485 -0.016112997457838 0)
(1.0041761668687 -0.017128165104718 0)
(1.0047057741742 -0.01813842906588 0)
(1.0052845167351 -0.01916176184781 0)
(1.0058913848623 -0.020169232034681 0)
(1.0065616946404 -0.021202937297439 0)
(1.00724697995 -0.022197741023957 0)
(1.0080235190702 -0.023250671987094 0)
(1.0087826371211 -0.02421329320178 0)
(1.0096897849837 -0.025307442429929 0)
(1.0105058611029 -0.026194439504554 0)
(1.0115903930846 -0.027381009938164 0)
(1.0124239349561 -0.028096239119637 0)
(1.0137991998569 -0.029495377355981 0)
(0.99999997289069 -0.00049823108829072 0)
(1.0000251611655 -0.0015268861778804 0)
(1.0000746498476 -0.0025531446869046 0)
(1.0001487971561 -0.0035736115210878 0)
(1.000247635407 -0.0045894837482548 0)
(1.0003707742496 -0.0055997217300024 0)
(1.0005175493963 -0.0066053857618882 0)
(1.0006879741508 -0.0076119409475489 0)
(1.0008824191905 -0.0086258447364708 0)
(1.0011023479965 -0.009651879962396 0)
(1.0013487771626 -0.01069048787525 0)
(1.0016239089472 -0.011740853133228 0)
(1.00192821551 -0.012799623423181 0)
(1.0022646293789 -0.013866891462054 0)
(1.0026323903599 -0.014939395724432 0)
(1.0030363917068 -0.016020956510696 0)
(1.003473352511 -0.017105713727849 0)
(1.0039524891933 -0.018202444425021 0)
(1.0044646214703 -0.019297224639895 0)
(1.005028263293 -0.020409922849173 0)
(1.005620763131 -0.021509038615311 0)
(1.0062810858964 -0.022640878375104 0)
(1.0069565611814 -0.023734247737879 0)
(1.0077310983878 -0.024895687702518 0)
(1.0084860979851 -0.02596254259276 0)
(1.0094032756116 -0.02717830760813 0)
(1.0102211374133 -0.02817122744813 0)
(1.0113343546972 -0.02949783867791 0)
(1.0121742840895 -0.030310843345212 0)
(1.0136123073385 -0.031880469569332 0)
(0.99999987528797 -0.00052043433810889 0)
(1.0000228272072 -0.0015978453897849 0)
(1.0000680941046 -0.0026722480290637 0)
(1.0001359079444 -0.003739945594307 0)
(1.0002262258609 -0.0048023284662337 0)
(1.0003386044556 -0.0058582377487487 0)
(1.0004723335535 -0.0069090797557399 0)
(1.0006274509806 -0.0079614019431355 0)
(1.0008044088389 -0.0090229313837273 0)
(1.0010048586717 -0.010099412886127 0)
(1.0012299999935 -0.011191649750887 0)
(1.0014823139928 -0.012298913666247 0)
(1.0017624508271 -0.013417698637098 0)
(1.0020737027379 -0.01454824782415 0)
(1.0024154424008 -0.015687260276168 0)
(1.0027931035587 -0.016839099038384 0)
(1.0032034162 -0.017997727524318 0)
(1.0036564980328 -0.019172845990169 0)
(1.0041428198349 -0.020349711831262 0)
(1.0046825325683 -0.021549940520327 0)
(1.005251715083 -0.02273984113729 0)
(1.0058925564293 -0.023969536322106 0)
(1.0065489417173 -0.025162520040306 0)
(1.0073114724513 -0.026433924406113 0)
(1.0080531851612 -0.027608380565957 0)
(1.0089700104961 -0.02894900032696 0)
(1.0097812982853 -0.03005402769032 0)
(1.0109124846405 -0.031525479598655 0)
(1.0117524627757 -0.03244592800446 0)
(1.0132423429695 -0.034191706961896 0)
(0.99999977007267 -0.00053903549426473 0)
(1.0000200206376 -0.0016581537717397 0)
(1.0000601655241 -0.0027736037029248 0)
(1.0001202937645 -0.003881386243491 0)
(1.0002002788563 -0.0049830867493601 0)
(1.0002996201402 -0.0060774179792752 0)
(1.0004175602134 -0.0071661636247664 0)
(1.0005541530396 -0.0082570241261653 0)
(1.0007099278614 -0.0093590832498407 0)
(1.0008867095036 -0.010479109149714 0)
(1.0010858795416 -0.011618317018768 0)
(1.0013101774216 -0.012776082748631 0)
(1.0015604426867 -0.013948792006142 0)
(1.001840295939 -0.015136848449338 0)
(1.0021492801529 -0.016336996911405 0)
(1.0024933134535 -0.017554138940891 0)
(1.0028692280788 -0.01878221034194 0)
(1.003287931834 -0.02003176735837 0)
(1.0037397461579 -0.021287512850915 0)
(1.0042462219798 -0.022572588523802 0)
(1.0047825887727 -0.023851621180545 0)
(1.0053937451425 -0.02517799059731 0)
(1.0060210059087 -0.026470903177811 0)
(1.0067605428364 -0.027852781767684 0)
(1.0074788466348 -0.029137649970726 0)
(1.0083836389239 -0.030605348375217 0)
(1.0091788850085 -0.031828493587617 0)
(1.0103156529369 -0.033448390139058 0)
(1.0111482067026 -0.034486522418612 0)
(1.0126769321748 -0.036412432678263 0)
(0.99999965854008 -0.00055398275220962 0)
(1.0000167713349 -0.001707610659466 0)
(1.0000509452812 -0.0028568675355011 0)
(1.0001021105491 -0.0039974509746851 0)
(1.0001700495823 -0.0051311376540488 0)
(1.0002541989482 -0.0062565006245362 0)
(1.0003537515121 -0.0073757255012944 0)
(1.0004687663025 -0.0084977214522778 0)
(1.0005998411796 -0.009633000319274 0)
(1.0007489524011 -0.010789401193136 0)
(1.0009176561462 -0.011968596217997 0)
(1.0011089199441 -0.013170077896858 0)
(1.0013237775485 -0.014390173054329 0)
(1.0015661346031 -0.015629449496791 0)
(1.0018357364678 -0.016884792563825 0)
(1.0021389129888 -0.01816162287788 0)
(1.0024726871779 -0.019454020611041 0)
(1.0028486204563 -0.020773298869053 0)
(1.0032570923985 -0.022103926722348 0)
(1.0037207764461 -0.023470280069176 0)
(1.0042145038967 -0.024835938446919 0)
(1.0047852950116 -0.026256813544848 0)
(1.0053728511494 -0.027649127397334 0)
(1.0060776511805 -0.029140909904548 0)
(1.0067616432072 -0.030538294714824 0)
(1.0076416310955 -0.032134094612642 0)
(1.0084103661403 -0.033481012120021 0)
(1.0095388477906 -0.035251518001103 0)
(1.0103553502435 -0.036417965964371 0)
(1.0119080018962 -0.038525998742024 0)
(0.99999954271727 -0.00056529171185087 0)
(1.0000131211294 -0.0017462171160481 0)
(1.0000405498243 -0.0029220310594342 0)
(1.0000815852471 -0.0040881259293842 0)
(1.0001359109701 -0.0052464611198872 0)
(1.0002028958499 -0.0063954570952056 0)
(1.0002816795086 -0.0075377188079864 0)
(1.0003723115764 -0.0086834037648564 0)
(1.0004754457791 -0.0098445055491924 0)
(1.0005931819439 -0.011029967074817 0)
(1.0007272367877 -0.012241955811056 0)
(1.0008807671761 -0.013480088324254 0)
(1.0010549982489 -0.014740683519556 0)
(1.0012540668657 -0.016024471208616 0)
(1.0014779451646 -0.017328577037283 0)
(1.00173328795 -0.018658908358933 0)
(1.002017390862 -0.02000987809454 0)
(1.0023423114175 -0.021393429863922 0)
(1.0026986924636 -0.022794164843216 0)
(1.0031100207668 -0.024237338600376 0)
(1.0035511933403 -0.025686229400911 0)
(1.0040707091396 -0.027198403140216 0)
(1.0046076602878 -0.028688660748134 0)
(1.0052654675229 -0.030288591531384 0)
(1.0059036633429 -0.031799752813636 0)
(1.0067452305949 -0.033523322870407 0)
(1.0074761250865 -0.034999132961808 0)
(1.0085812075211 -0.03692076091891 0)
(1.0093718957793 -0.038226336254422 0)
(1.0109318614736 -0.040516208557141 0)
(0.99999942400837 -0.00057304214113724 0)
(1.0000091225325 -0.0017741659350261 0)
(1.0000291262328 -0.0029694057106685 0)
(1.0000590026625 -0.0041538466702589 0)
(1.0000983302387 -0.0053296162050028 0)
(1.000146406449 -0.0064949661351459 0)
(1.0002023141053 -0.0076529300469444 0)
(1.0002660766997 -0.0088149381750935 0)
(1.0003383857971 -0.0099945016708987 0)
(1.0004214315834 -0.01120168647755 0)
(1.0005170707204 -0.012439185564019 0)
(1.000628604473 -0.013706743361514 0)
(1.0007574378737 -0.015000718403567 0)
(1.0009078774265 -0.016321996759195 0)
(1.0010801355076 -0.017668040268455 0)
(1.0012810955501 -0.019045205122445 0)
(1.0015083945893 -0.020448426660331 0)
(1.0017744161422 -0.021890142580944 0)
(1.0020702583725 -0.023355470406715 0)
(1.0024198917274 -0.024870158921429 0)
(1.0027987375963 -0.02639799678215 0)
(1.0032560926708 -0.027997223241452 0)
(1.0037314594399 -0.029582973357702 0)
(1.0043297637719 -0.031288051935692 0)
(1.0049103099785 -0.032913269871671 0)
(1.0056992449566 -0.03476280472929 0)
(1.0063802894398 -0.036371915939065 0)
(1.0074458876738 -0.038443377125057 0)
(1.008199952056 -0.039898840321615 0)
(1.009749188572 -0.042367798495816 0)
(0.99999930547587 -0.00057737019153951 0)
(1.0000048334391 -0.0017918289208465 0)
(1.0000168401398 -0.0029995961377088 0)
(1.0000346887103 -0.0041954527806521 0)
(1.0000578432288 -0.0053816813546738 0)
(1.0000855293098 -0.0065563473222257 0)
(1.0001167697928 -0.0077229114362521 0)
(1.0001515437882 -0.0088940820399817 0)
(1.0001905583108 -0.010084902690153 0)
(1.0002360564482 -0.011306568239913 0)
(1.0002900066915 -0.012562318350983 0)
(1.0003558072497 -0.013852030174926 0)
(1.0004350225354 -0.015172142513816 0)
(1.0005320653176 -0.016523695099638 0)
(1.0006473849921 -0.017904564000697 0)
(1.000787995746 -0.019321525629275 0)
(1.0009519196256 -0.02077019866211 0)
(1.001151698298 -0.022263405301609 0)
(1.0013790445863 -0.023787122371175 0)
(1.0016580876559 -0.025367254041535 0)
(1.0019651974935 -0.026968862978741 0)
(1.0023497828605 -0.028649927397387 0)
(1.0027527596969 -0.030327668565324 0)
(1.0032790696704 -0.032133693345387 0)
(1.003790000454 -0.033872121361884 0)
(1.0045117359721 -0.035844301184715 0)
(1.0051304284767 -0.037590167536681 0)
(1.0061397402656 -0.03980826163844 0)
(1.006845484219 -0.041424249509988 0)
(1.0083647562486 -0.044066448685523 0)
(0.99999918668475 -0.00057846086666976 0)
(1.0000003174361 -0.0017997008550072 0)
(1.000003866976 -0.0030134390220417 0)
(1.0000089809042 -0.0042141404903908 0)
(1.0000150143677 -0.0054042062146498 0)
(1.0000211152502 -0.0065814976070101 0)
(1.0000262412281 -0.0077498967340174 0)
(1.0000303098696 -0.0089233822714371 0)
(1.0000340184127 -0.010118526794583 0)
(1.000039621438 -0.011347645137031 0)
(1.0000491617587 -0.012614532367536 0)
(1.0000660852787 -0.013919202390275 0)
(1.0000920862537 -0.015258203178236 0)
(1.0001316266281 -0.016632734970107 0)
(1.0001853689436 -0.018041137119378 0)
(1.0002603718112 -0.01949060778473 0)
(1.0003550431391 -0.020977543020423 0)
(1.0004819437627 -0.022515124973664 0)
(1.0006334867522 -0.024090388160868 0)
(1.0008336914673 -0.02572925617966 0)
(1.0010601955089 -0.027398536958797 0)
(1.001361910953 -0.0291554204987 0)
(1.0016820783227 -0.030920454104749 0)
(1.0021241949389 -0.032822276022614 0)
(1.0025537442841 -0.034671676644524 0)
(1.0031936123035 -0.036761917519544 0)
(1.0037372660708 -0.038646595097702 0)
(1.0046727527692 -0.041006123418122 0)
(1.0053182268001 -0.042792878810285 0)
(1.0067867016011 -0.045600065225329 0)
(0.99999907103978 -0.00057652326198626 0)
(0.99999561681257 -0.0017984069683868 0)
(0.99999035008058 -0.0030119644514965 0)
(0.9999821949236 -0.004211341090452 0)
(0.99997038529849 -0.0053990455373384 0)
(0.99995399579537 -0.0065727163235459 0)
(0.99993191891724 -0.007736632526019 0)
(0.99990398693859 -0.008906011642385 0)
(0.99987085938929 -0.010098936183811 0)
(0.99983475584288 -0.011328819630137 0)
(0.99979775378194 -0.01260001658956 0)
(0.99976329338584 -0.0139126741376 0)
(0.99973316648925 -0.015263467288202 0)
(0.99971182501518 -0.016653760509487 0)
(0.99970010839671 -0.018082378843989 0)
(0.99970504070674 -0.019556968624493 0)
(0.99972537925385 -0.021074719171732 0)
(0.99977360368623 -0.022649263479218 0)
(0.99984281651975 -0.024268664131303 0)
(0.99995677015673 -0.025959091605185 0)
(1.000094473596 -0.027688947900338 0)
(1.0003039740127 -0.029515076810192 0)
(1.0005313864529 -0.031361117531185 0)
(1.0008776862098 -0.033353157134091 0)
(1.0012144854615 -0.035309085073711 0)
(1.0017580425525 -0.037512685971513 0)
(1.002214646095 -0.039535329915932 0)
(1.0030569166494 -0.042030100128287 0)
(1.0036324068799 -0.043995804822011 0)
(1.005022817559 -0.046953091962478 0)
(0.99999895482685 -0.00057180507454744 0)
(0.99999077903735 -0.0017886203781422 0)
(0.99997643697021 -0.0029962761698465 0)
(0.99995462560672 -0.0041885987371068 0)
(0.99992445663316 -0.0053681959338681 0)
(0.99988494376158 -0.0065324692183824 0)
(0.99983492481096 -0.0076860517127637 0)
(0.99977411038348 -0.0088453431247154 0)
(0.99970309070461 -0.01002991538537 0)
(0.9996239898526 -0.011254263903345 0)
(0.99953889538298 -0.012523322725698 0)
(0.99945117537038 -0.013837342485269 0)
(0.99936271532387 -0.015193142365642 0)
(0.99927785745279 -0.016592213614495 0)
(0.99919762499808 -0.01803390298108 0)
(0.99912885692207 -0.019526284947558 0)
(0.9990706951616 -0.021067363557995 0)
(0.99903533516652 -0.022671302465445 0)
(0.99901664506262 -0.024327059909366 0)
(0.99903786679448 -0.02606150505388 0)
(0.9990794774031 -0.027843879695319 0)
(0.99918838571792 -0.029732267510472 0)
(0.99931369914965 -0.031650902004685 0)
(0.99955352489483 -0.033727729622592 0)
(0.99978621839039 -0.035781498163392 0)
(1.0002203607227 -0.038096146446652 0)
(1.0005778741409 -0.040248709791401 0)
(1.0013103259389 -0.0428785653019 0)
(1.0018029096036 -0.045017440474087 0)
(1.0030930251061 -0.048114587380711 0)
(0.99999883629465 -0.00056463658224349 0)
(0.99998590387448 -0.0017712738595576 0)
(0.99996236569955 -0.0029677742228605 0)
(0.99992667122725 -0.0041476829293814 0)
(0.99987781513106 -0.0053138234196058 0)
(0.99981480839523 -0.0064633701039099 0)
(0.99973646271239 -0.0076011932860972 0)
(0.99964228906178 -0.0087447460808268 0)
(0.9995327443412 -0.0099150307867423 0)
(0.99940977712361 -0.011127642337103 0)
(0.99927551932028 -0.012388198761554 0)
(0.99913319832932 -0.013697039344824 0)
(0.99898485263969 -0.015051173660811 0)
(0.99883451547438 -0.016452099585713 0)
(0.99868353780365 -0.01789978523017 0)
(0.99853820024179 -0.019402562645432 0)
(0.99839840043614 -0.020959479339901 0)
(0.99827534745734 -0.022585005723108 0)
(0.99816447732873 -0.024269277419494 0)
(0.99808725459996 -0.026039789387154 0)
(0.99802711878496 -0.027866381168793 0)
(0.99802772135436 -0.029809609847285 0)
(0.99804349743159 -0.031791288498144 0)
(0.99816662106856 -0.033947928835488 0)
(0.99828531056361 -0.036086383282582 0)
(0.99859679835604 -0.038514933633593 0)
(0.99884435850646 -0.040776597040605 0)
(0.99945265071343 -0.043564251987024 0)
(0.99985748039812 -0.045840156193825 0)
(1.0010202364706 -0.04911229995599 0)
(0.99999870366679 -0.00055555014751088 0)
(0.99998120943387 -0.0017479751954129 0)
(0.99994867100832 -0.0029289101460089 0)
(0.99989904954796 -0.0040916104912849 0)
(0.99983125579286 -0.0052393510771204 0)
(0.99974456413834 -0.0063692504832029 0)
(0.99963786899316 -0.0074862293905036 0)
(0.99951035737411 -0.0086087233823747 0)
(0.99936217199396 -0.0097589793330683 0)
(0.99919489456421 -0.01095358041219 0)
(0.99901075602934 -0.012198911707 0)
(0.99881285765094 -0.013495480207511 0)
(0.99860354767462 -0.014840697252859 0)
(0.9983863226432 -0.016235983190903 0)
(0.99816309693058 -0.017682153905787 0)
(0.99793899558732 -0.019187523517445 0)
(0.99771540358026 -0.020752766926613 0)
(0.99750119166286 -0.022392003550339 0)
(0.99729529780112 -0.024097854924366 0)
(0.99711429340872 -0.025896971078562 0)
(0.99694914795283 -0.027762219080319 0)
(0.99683331078594 -0.02975420764362 0)
(0.99673641375945 -0.031794898758749 0)
(0.99673031639931 -0.034029416704933 0)
(0.99673246551008 -0.036246119206411 0)
(0.99690082119641 -0.038801418137991 0)
(0.99703646083255 -0.041145237999027 0)
(0.99748949218026 -0.044161815017541 0)
(0.99782865013757 -0.046476443302006 0)
(0.99882700879104 -0.050187276850099 0)
(0.9999985342415 -0.00054573776306167 0)
(0.99997641036063 -0.0017224893126703 0)
(0.99993531231992 -0.0028866515308316 0)
(0.99987203320758 -0.0040311141612129 0)
(0.99978519611261 -0.0051593215897112 0)
(0.99967475380327 -0.0062683693404729 0)
(0.99953984295572 -0.0073626271831013 0)
(0.99937925694172 -0.0084619846319476 0)
(0.99919284132553 -0.0095903683010163 0)
(0.99898158713684 -0.010765448559577 0)
(0.99874763281565 -0.011994169967692 0)
(0.998493877122 -0.013276930720028 0)
(0.99822305607217 -0.014611681199061 0)
(0.99793816552639 -0.015999731623564 0)
(0.99764172668234 -0.017443171225393 0)
(0.99733743307092 -0.018950305884352 0)