/*--------------------------------*- C++ -*----------------------------------*\
| =========                 |                                                 |
| \\      /  F ield         | OpenFOAM: The Open Source CFD Toolbox           |
|  \\    /   O peration     | Version:  2112                                  |
|   \\  /    A nd           | Website:  www.openfoam.com                      |
|    \\/     M anipulation  |                                                 |
\*---------------------------------------------------------------------------*/
FoamFile
{
    version     2.0;
    format      ascii;
    arch        "LSB;label=32;scalar=64";
    class       surfaceScalarField;
    location    "15.4";
    object      phi;
}
// * * * * * * * * * * * * * * * * * * * * * * * * * * * * * * * * * * * * * //

dimensions      [0 3 -1 0 0 0 0];

oriented        oriented;

internalField   nonuniform List<scalar> 
43645
(
0.39512383258865
-4.95956668024e-06
0.3951387439946
-1.4911455919518e-05
0.39516353922609
-2.4795285535741e-05
0.39519818221063
-3.4643040350588e-05
0.39524264820018
-4.4466045631917e-05
0.39529691562848
-5.4267483811603e-05
0.39536095579137
-6.4040217376008e-05
0.39543473084734
-7.3775109240978e-05
0.39551819360035
-8.3462804943273e-05
0.39561129222001
-9.3098670262708e-05
0.39571396577627
-0.00010267360545678
0.39582614942802
-0.00011218369961907
0.3959477648657
-0.00012161548419104
0.3960787382489
-0.00013097342844895
0.39621898099579
-0.00014024279088821
0.39636842550875
-0.00014944455583825
0.39652696839683
-0.00015854292987967
0.39669454304487
-0.00016757468892406
0.39687098795109
-0.0001764449462467
0.39705622628779
-0.00018523837606566
0.39724998003144
-0.00019375378241826
0.39745220316286
-0.00020222316979778
0.39766243145187
-0.00021022832705828
0.39788078430808
-0.00021835289414826
0.39810645525276
-0.0002256709825571
0.39834001327789
-0.00023355806313939
0.3985799085217
-0.00023989528201295
0.39882777143015
-0.00024786294650212
0.39908035942956
-0.00025258803704165
-0.00026135174950653
0.39934171114053
0.37294714273225
-9.5476358807514e-06
0.37296101458233
-2.8783389885867e-05
0.37298428918053
-4.8069969165918e-05
0.37301693003622
-6.7283981363912e-05
0.37305891462933
-8.6450722993391e-05
0.37311023025845
-0.00010558319569078
0.37317085885303
-0.00012466889297512
0.37324077370766
-0.00014369004312217
0.37331993967957
-0.00016262885423922
0.37340831829141
-0.00018147735767253
0.37350586335283
-0.00020021874055903
0.37361252596292
-0.00021884638160637
0.37372824480705
-0.00023733439839496
0.37385296354032
-0.00025569223012917
0.37398661127996
-0.0002738905972819
0.37412913752785
-0.00029197086902591
0.37428045594155
-0.00030986140747668
0.3744405162958
-0.00032763510591261
0.37460917510704
-0.00034510381913856
0.374786373219
-0.00036243654887579
0.37497185462909
-0.00037923525263009
0.37516559266152
-0.00039596126189507
0.37536715091007
-0.00041178663491726
0.37557666614957
-0.00042786819286935
0.37579336886269
-0.00044237375487682
0.37601783647753
-0.00045802573740891
0.37624857889449
-0.00047063775866704
0.37648721353575
-0.00048649764714565
0.37673061896035
-0.00049599351943632
-0.00051352857730709
0.37698279572833
0.35201533157208
-1.3981764729127e-05
0.35202872062325
-4.2172527429632e-05
0.35205106995283
-7.041938547227e-05
0.35208236421283
-9.8578327142328e-05
0.35212260215825
-0.0001266887524907
0.35217178491016
-0.00015476602973973
0.35222990490575
-0.00018278896858831
0.35229694738074
-0.00021073259601993
0.35237289254716
-0.00023857409636591
0.35245772096502
-0.00026630584912157
0.35255140803551
-0.00029390588243505
0.35265392894703
-0.00032136736246009
0.35276524747982
-0.00034865299842991
0.35288533386258
-0.00037577867825458
0.35301414212629
-0.00040269892452134
0.35315164723398
-0.00042947603867495
0.35329778415764
-0.00045599839159024
0.35345252758883
-0.00048237859639045
0.35361575346191
-0.00050832975042643
0.35378743340655
-0.00053411655100878
0.35396733060695
-0.00055913250989612
0.3541554608465
-0.00058409155806662
0.35435139954522
-0.00060772539008636
0.35455534225891
-0.00063181096320068
0.35476650517138
-0.00065353672424816
0.35498555406117
-0.00067707468468185
0.355210922676
-0.00069600643160011
0.35544438209065
-0.00071995711998161
0.35568259787324
-0.00073420935884393
-0.00076077788106136
0.3559298471176
0.33225829362039
-1.8231499318848e-05
0.33227115520171
-5.5034187214193e-05
0.33229260734629
-9.1871608870047e-05
0.33232263684891
-0.00012860790775794
0.33236125807373
-0.00016531005383041
0.33240848897882
-0.00020199700965866
0.33246433653949
-0.00023863660220841
0.33252880125215
-0.00027519737976333
0.33260188202196
-0.00031165493528485
0.33268358277986
-0.00034800667421558
0.33277390587951
-0.00038422904728979
0.33287285717213
-0.00042031871842194
0.33298043261214
-0.0004562284998709
0.33309663691901
-0.00049198304484889
0.33322145633995
-0.00052751840350322
0.33335489916446
-0.0005629189197959
0.33349692766177
-0.00059802694413225
0.33364754914354
-0.00063300013233562
0.3338066635662
-0.0006674442262622
0.33397428291594
-0.00070173595327476
0.33415019278877
-0.0007350424346573
0.33433446542467
-0.00076836424566081
0.33452668703403
-0.00079994705094511
0.33472713370339
-0.00083225768421258
0.3349349953004
-0.00086139837307765
0.33515106523454
-0.00089314467114901
0.33537366864447
-0.00091860989433126
0.3356048157716
-0.00095110429986824
0.33584089324545
-0.00097028688405603
-0.0010065627996183
0.33608667811016
0.31361011533589
-2.2289521812753e-05
0.31362243376523
-6.7352686668465e-05
0.31364297419983
-0.00011241211356644
0.31367173207643
-0.00015736585346421
0.31370874020644
-0.0002023182513634
0.31375403518694
-0.00024729205594789
0.31380764068309
-0.00029224216221208
0.31386957543299
-0.00033713219163345
0.31393986084168
-0.00038194040392268
0.31401852888408
-0.00042667477464553
0.31410561417496
-0.00047131439419167
0.31420115928625
-0.00051586388391068
0.31430519873269
-0.00056026799862374
0.31441777878896
-0.00060456315179933
0.31453892477836
-0.00064866444196307
0.31466868590565
-0.00069268009483257
0.31480705837035
-0.00073639945533113
0.31495409026728
-0.00078003207483762
0.31510971179998
-0.00082306580370118
0.31527398518913
-0.00086600938668371
0.3154467240381
-0.00090778132748317
0.31562807034971
-0.00094971060108216
0.31581762427372
-0.00098950101878771
0.31601576176231
-0.0010303952170084
0.3162216425134
-0.0010672791687698
0.31643621827167
-0.0011077204747421
0.31665768424532
-0.0011400759140173
0.31688834168125
-0.0011817617821004
0.31712423323574
-0.001206178483847
-0.001253055053865
0.31737072544197
0.29600855385715
-2.6141580083735e-05
0.2960202909799
-7.9089873605083e-05
0.29603985564654
-0.00013197684427853
0.29606725521881
-0.00018476548889007
0.2961025445489
-0.00023760764318182
0.29614578165292
-0.00029052922018978
0.2961970091774
-0.00034346974522436
0.29625626673116
-0.00039638980227323
0.29632360157907
-0.00044927530692424
0.2963990779227
-0.00050215117168234
0.29648276742296
-0.00055500394605719
0.29657475481086
-0.00060785132177967
0.29667511897565
-0.00066063221166499
0.29678395416321
-0.00071339838614977
0.29690133117255
-0.00076604149658385
0.29702734709509
-0.00081869606144957
0.29716203853632
-0.00087109093945234
0.29730550201424
-0.00092349559477324
0.29745770468861
-0.00097526851924195
0.2976187683339
-0.0010270730726441
0.29778854162314
-0.0010775546569275
0.29796724833251
-0.0011284173505216
0.29815450867608
-0.0011767614022973
0.29835081391722
-0.0012267004982797
0.29855529529781
-0.0012717605896935
0.29876908370252
-0.0013215089202551
0.29899023567462
-0.0013612279273617
0.29922137540476
-0.0014129015535074
0.29945817261053
-0.0014429757298006
-0.0015015193586504
0.29970663687265
0.27939485711967
-2.9764232848508e-05
0.2794059444895
-9.0177299021994e-05
0.27942442356853
-0.00015045597863293
0.27945031505933
-0.00021065703408535
0.27948369771365
-0.00027099035055667
0.27952465273128
-0.00033148428947083
0.27957324345271
-0.00039206051671057
0.27962953237114
-0.00045267876924501
0.27969359521941
-0.00051333820206407
0.27976553173002
-0.00057408772760979
0.27984545447106
-0.00063492673075265
0.27993349475478
-0.00069589164765529
0.28002978067231
-0.00075691816978615
0.28013445978799
-0.00081807754109606
0.2802476539399
-0.00087923568639859
0.28036951418709
-0.0009405563454713
0.28050012367368
-0.0010017004618209
0.28063963434115
-0.0010630062972768
0.28078805732631
-0.0011236915387162
0.28094558254443
-0.0011845983246839
0.28111210195911
-0.0012440741051631
0.28128793166974
-0.001304247094668
0.28147272085666
-0.0013615506227007
0.28166708848275
-0.0014210681581222
0.28187014581926
-0.0014748179602298
0.28208321708
-0.0015345802155595
0.28230422708649
-0.0015822379689174
0.28253613980921
-0.0016448143114365
0.28277425690219
-0.0016810928572012
-0.0017525157071843
0.28302525321384
0.26371357500982
-3.312983985681e-05
0.26372392238201
-0.00010052472054572
0.26374117544247
-0.00016770908816006
0.26376536708989
-0.00023484872980586
0.26379660075648
-0.00030222406433376
0.26383498198111
-0.00036986556015615
0.26388059570965
-0.00043767428999759
0.26393352832991
-0.00050561143302243
0.26399388543124
-0.0005736953455249
0.26406180427028
-0.00064200660750367
0.26413744089356
-0.00071056339345663
0.26422097634927
-0.00077942714154919
0.26431259159606
-0.000848533453391
0.26441249162608
-0.00091797760679995
0.26452085386128
-0.00098759795606588
0.26463788827189
-0.0010575907896081
0.26476373006647
-0.0011275422889371
0.26489859263582
-0.001197868898464
0.2650425381483
-0.0012676370823072
0.26519583217261
-0.0013378923796718
0.26535841915256
-0.0014066611153425
0.26553071637591
-0.0014765443480796
0.26571241376143
-0.0015432480380781
0.26590426700738
-0.0016129214339962
0.26610538260387
-0.0016759335866766
0.26631728485557
-0.0017464824974622
0.26653778843704
-0.0018027415807901
0.26677019602319
-0.00187722192787
0.2670094767046
-0.0019203735680081
-0.0020059889275572
0.2672629498935
0.24891237074744
-3.6207937346122e-05
0.24892188404478
-0.00011003805971152
0.24893775911485
-0.00018358419978168
0.24896004082026
-0.00025713047609891
0.24898885702345
-0.00033104030746038
0.24902433754395
-0.00040534611964647
0.24906658941677
-0.00047992620071108
0.24911572376188
-0.00055474581501336
0.2491718770078
-0.00062984862714817
0.24923522471806
-0.00070535435241738
0.24930596748545
-0.00078130619430364
0.2493843375683
-0.00085779725681943
0.24947057081771
-0.0009347667340722
0.24956493210185
-0.0010123389212586
0.24966765760289
-0.0010903234864113
0.24977901964707
-0.0011689528623009
0.2498992100848
-0.001247732754346
0.25002850837234
-0.0013271672131159
0.25016703441852
-0.0014061631549689
0.25031513532393
-0.0014859933112284
0.25047281780111
-0.0015643436182791
0.25064060674603
-0.0016443333186374
0.2508182470378
-0.0017208883553154
0.25100663585415
-0.0018013102758959
0.25120489666075
-0.0018741944188354
0.25141475161004
-0.0019563374725456
0.25163394160666
-0.0020219316033468
0.2518660870668
-0.0021093674138349
0.25210589233566
-0.0021601788619415
-0.0022613529817943
0.25236125636291
0.23494184828423
-3.8968696215897e-05
0.23495043690512
-0.00011862671675761
0.23496478413951
-0.00019793147010948
0.23498494694973
-0.00027729332177446
0.23501107704863
-0.00035717044107032
0.23504332773546
-0.00043759684051714
0.23508182730557
-0.00051842580401617
0.23512671080041
-0.00059962934231711
0.23517814499073
-0.00068128284901364
0.23523634383093
-0.00076355322338477
0.23530155270629
-0.00084651509948314
0.23537405489822
-0.0009302994777776
0.23545414145843
-0.0010148533223751
0.23554213765098
-0.0011003351411582
0.23563833985366
-0.0011865257155763
0.23574308430714
-0.0012736973416279
0.23585662276939
-0.0013612712417097
0.23597930354996
-0.0014498480182919
0.23611131026321
-0.0015381698922398
0.23625307522973
-0.0016277583014197
0.23640467735091
-0.001715945762716
0.23656675242775
-0.0018064084185184
0.23673911654861
-0.0018932524989607
0.23692280788126
-0.0019850016312521
0.23711699468645
-0.0020683812465762
0.23732358492864
-0.0021629277373114
0.2375402969832
-0.0022386436804076
0.23777102758265
-0.0023400980354793
0.23801031710034
-0.0023994684010221
-0.0025175707854436
0.23826653488106
0.22175538651152
-4.1385446842613e-05
0.22176296889668
-0.0001262091323336
0.22177565222306
-0.00021061482673761
0.22179350504806
-0.00029514617666398
0.2218167015254
-0.00038036694775754
0.22184541677847
-0.00046631212244454
0.22187979882709
-0.00055280788088174
0.22192000507207
-0.00063983561501696
0.22196623098426
-0.00072750878824971
0.22201872681051
-0.00081604907613553
0.22207778093716
-0.00090556925191465
0.22214372635596
-0.00099624492178575
0.22221690819728
-0.0010880351881876
0.22229771041746
-0.001181137385289
0.22238648918694
-0.0012753045083322
0.22248364404598
-0.0013708522234521
0.22258948825002
-0.0014671154679312
0.22270443953105
-0.0015647993211185
0.22282875000998
-0.0016624803924768
0.22296293824378
-0.0017619465562394
0.2231071649338
-0.0018601724733908
0.22326217635036
-0.0019614198555544
0.22342787746357
-0.0020589536323782
0.22360544124731
-0.0021625654351079
0.22379411417067
-0.0022570541898683
0.22399596746631
-0.0023647810528363
0.22420876233679
-0.0024514385706423
0.22443660940688
-0.002567945124962
0.22467401743712
-0.0026368764499111
-0.0027732264316311
0.22492967306332
0.20930898300633
-4.3436527966762e-05
0.20931549181893
-0.00013271797089465
0.20932639817099
-0.0002215212046768
0.2093417810959
-0.0003105291272432
0.209361835026
-0.00040042090315315
0.20938675447272
-0.00049123159418898
0.20941670485591
-0.00058275828868664
0.20945186337528
-0.00067499415871497
0.20949245143586
-0.00076809687269224
0.2095387522841
-0.00086234994790924
0.20959109401624
-0.00095791100709236
0.20964985531925
-0.0010550062474742
0.20971543244826
-0.0011536123393561
0.20978826498378
-0.0012539699425902
0.20986876652668
-0.0013558060724946
0.2099573968728
-0.0014594825904753
0.21005453055986
-0.0015642491754192
0.21016065281091
-0.0016709215922594
0.21027608742552
-0.0017779150267566
0.21040143721151
-0.0018872963616172
0.2105369533812
-0.0019956886621002
0.21068348806793
-0.002107954561075
0.21084105365563
-0.0022165192385655
0.21101094544428
-0.0023324572420483
0.21119252608641
-0.0024386348500301
0.21138799690882
-0.0025602518931
0.21159524020519
-0.002658681884618
0.21181849751496
-0.002791202451867
0.21205240791148
-0.0028707868627901
-0.0030265982880932
0.21230577975048
0.19756110656906
-4.5106587994908e-05
0.1975664926637
-0.00013810408755636
0.19757553887066
-0.00023056743365528
0.19758833312488
-0.00032332340340481
0.19760508724197
-0.00041717504196542
0.19762601197925
-0.00051215635306679
0.19765128710925
-0.00060803344004633
0.19768110625465
-0.00070481332537082
0.19771571298634
-0.00080270362535296
0.19775541900403
-0.00090205598643297
0.1978005874388
-0.0010030794623796
0.197851637204
-0.0011060560330173
0.19790901069858
-0.0012109858539324
0.19797319709086
-0.0013181563546487
0.19804466400707
-0.001427273008125
0.1981239262664
-0.0015387448689825
0.19821141748896
-0.001651740416787
0.19830768581126
-0.0017671899331227
0.19841312796423
-0.0018833571979308
0.19852842588095
-0.0020025942962855
0.19865392849826
-0.0021211912970168
0.19879058471116
-0.0022446107913407
0.19893853303458
-0.0023644675790361
0.1990991721441
-0.0024930963683873
0.19927202230971
-0.002611485032166
0.1994593713398
-0.0027476009394715
0.19965931145714
-0.0028586220179358
0.19987611249202
-0.0030080035022101
0.20010473153579
-0.003099405921293
-0.0032757312407752
0.20035386447278
0.18647255815572
-4.6387391760991e-05
0.18647679324447
-0.0001423391953795
0.18648393046506
-0.00023770467337892
0.18649406473113
-0.00033345768863925
0.1865074218317
-0.00043053216160414
0.18652422510548
-0.00052895964591543
0.18654466502979
-0.00062847338332391
0.18656894768116
-0.0007290959957303
0.18659733409826
-0.0008310900613108
0.18663015897207
-0.00093488087910683
0.18666781439379
-0.0010407349027931
0.18671075283644
-0.0011489944943368
0.18675945616547
-0.0012596892014311
0.18681445571306
-0.0013731559206274
0.18687626683301
-0.001489084146228
0.18694545213566
-0.0016079301896425
0.18702250104761
-0.0017287893464634
0.18710801691648
-0.001852705819516
0.18720246896377
-0.0019778092624276
0.18730660977311
-0.0021067351225755
0.18742089107938
-0.0022354726198717
0.18754634537146
-0.0023700650997321
0.18768325503369
-0.0025013772572058
0.18783309657933
-0.0026429379296479
0.18799559158076
-0.0027739800488547
0.18817306129811
-0.0029250706717581
0.18836390457182
-0.0030494653062158
0.18857229982532
-0.0032163987697204
0.18879373050091
-0.0033208366102014
-0.0035185114624506
0.18903651070841
0.17600633947099
-4.7278118531174e-05
0.17600941702161
-0.0001454167627641
0.17601463253471
-0.00024292020338775
0.17602208574371
-0.00034091091463226
0.17603201261424
-0.00044045904909672
0.17604464505043
-0.00054159209914739
0.17606018022178
-0.00064400857168468
0.17607883224512
-0.00074774803615902
0.1761008742871
-0.00085313212033059
0.17612665785494
-0.00096066446407901
0.17615659686467
-0.0010706739295872
0.17619116975546
-0.0011835674022614
0.17623088962051
-0.0012994090835351
0.17627632152339
-0.0014185878405883
0.17632802042558
-0.0015407830653683
0.17638658768241
-0.0016664974633582
0.17645256250648
-0.0017947641872109
0.17652659436486
-0.0019267376944233
0.17660922256301
-0.0020604374767861
0.17670125827613
-0.0021987708516539
0.17680325927908
-0.0023374736383817
0.17691632442858
-0.0024831302644445
0.17704089538731
-0.0026259482307158
0.17717849559351
-0.0027805381502185
0.17732909172262
-0.0029245761919011
0.17749497657519
-0.0030909555378406
0.17767495702855
-0.0032294457726827
0.17787298753341
-0.0034144292871148
0.17808529956583
-0.0035331486545386
-0.0037527426612449
0.17831953075189
0.16612752915483
-4.7785307517928e-05
0.16612946430576
-0.00014735192883386
0.16613278100544
-0.00024623691834121
0.16613758177916
-0.00034571170373112
0.16614410887281
-0.00044698615807417
0.1661525985861
-0.00055008182783805
0.16616325063044
-0.00065466063135986
0.16617628249541
-0.00076077991651992
0.16619197387088
-0.00086882351112894
0.16621068636339
-0.00097937697200506
0.16623284804879
-0.001092835630365
0.16625895483838
-0.0012096742073412
0.1662895419897
-0.0013299962503291
0.16632519876003
-0.0014542446264873
0.16636651029697
-0.001582094617814
0.16641410675669
-0.0017140939385919
0.16646856887483
-0.0018492263206948
0.16653058103562
-0.0019887498704242
0.16660074825634
-0.0021306047124102
0.16667992579559
-0.0022779484054898
0.16676877840718
-0.0024263262641069
0.16686845017389
-0.0025828020448247
0.16697955514369
-0.0027370532136391
0.1671036286039
-0.0029046116229946
0.16724092291056
-0.0030618705105716
0.16739363412075
-0.0032436667594851
0.16756107828009
-0.0033968899430069
0.16774684493251
-0.0036001959499413
0.16794814173251
-0.0037344454644574
-0.0039762204759896
0.16817161953654
0.15680316541498
-4.7922045547181e-05
0.15680399348767
-0.00014818001553059
0.15680546802205
-0.00024771146678865
0.15680769187755
-0.00034793557325742
0.15681090976246
-0.00045020405684346
0.15681535829994
-0.0005545303790751
0.15682123571203
-0.00066053805696997
0.15682875820457
-0.00076830242247093
0.15683820639022
-0.00087827170998651
0.15684994506876
-0.00099111566369746
0.15686440867926
-0.0011072992539196
0.15688210161414
-0.0012273671553379
0.15690357194284
-0.0013514665921277
0.15692942261795
-0.0014800953148099
0.1569602590719
-0.0016129310849536
0.15699672900209
-0.001750563882028
0.15703944553695
-0.0018919428686609
0.15708911560639
-0.0020384199528237
0.15714640228366
-0.0021878914023226
0.15721218955155
-0.0023437356856185
0.15728724630308
-0.0025013830273384
0.15737273883821
-0.0026682945910208
0.15746946241811
-0.0028337768038943
0.15757892774938
-0.003014076963853
0.15770170845739
-0.0031846512274213
0.15783983369191
-0.0033817920021152
0.1579932210698
-0.0035502773284237
0.1581649492849
-0.0037719241720096
0.15835342647287
-0.0039229226590999
-0.0041868019297775
0.1585640079192
0.14800213625779
-4.7707385874373e-05
0.1480019105943
-0.00014795436561936
0.14800162883296
-0.00024742971890323
0.14800139267564
-0.00034769942903208
0.14800144570113
-0.00045025709489087
0.14800202080076
-0.00055510549076773
0.14800331089007
-0.00066182815773868
0.14800552648718
-0.00077051803054692
0.14800894376806
-0.00088168900130631
0.14801392385535
-0.00099609576109975
0.14802089981511
-0.0011142752234901
0.14803037549098
-0.0012368428409362
0.14804290249715
-0.0013639936079307
0.14805908671689
-0.0014962795442682
0.14807954374785
-0.0016333881256147
0.14810492703264
-0.0017759471765745
0.14813587204136
-0.001922887887018
0.14817309569709
-0.0020756436180198
0.1482173089064
-0.0022321046207314
0.14826940947741
-0.002395836265236
0.14833026112504
-0.0025622346828785
0.1484010322773
-0.0027390657503495
0.14848269747697
-0.0029154420096877
0.14857671089932
-0.0031080903912581
0.14868399162906
-0.0032919319611982
0.1488063425758
-0.0035041429518871
0.14894436105832
-0.0036882958132238
0.14910046770575
-0.0039280308211529
0.14927447474025
-0.0040969296953347
-0.004382459478014
0.14947013228601
0.13969507494511
-4.7165084238063e-05
0.13969386292916
-0.00014674236444702
0.13969193548449
-0.0002455022887125
0.13968939100592
-0.00034515496401421
0.13968646864056
-0.00044733474189136
0.13968339420107
-0.00055203106245703
0.13968035184112
-0.00065878580770678
0.13967754217739
-0.00076770837564138
0.13967523213653
-0.00087937896823867
0.1396737727384
-0.00099463637000396
0.1396735884907
-0.0011140909822007
0.13967517388123
-0.0012384282375654
0.13967907507172
-0.0013678948042908
0.13968589018883
-0.0015030946672426
0.13969623476501
-0.0016437327076147
0.13971075677742
-0.0017904691948449
0.13973010258132
-0.0019422336966503
0.13975498832879
-0.002100529371012
0.13978615808656
-0.0022632743835744
0.13982451378633
-0.0024341919694557
0.13987099424701
-0.0026087151471301
0.13992676120759
-0.0027948327133912
0.13999294457167
-0.0029816253749584
0.14007093006874
-0.00318607588807
0.14016196575764
-0.0033829676484228
0.14026760707836
-0.0036097842695316
0.14038917774993
-0.0038098664806924
0.14052833713414
-0.0040671902006715
0.14068645978956
-0.004255052346429
-0.0045613303305329
0.14086533064564
0.1318542622134
-4.6322584420518e-05
0.13185214273126
-0.00014462290211978
0.13184869970288
-0.00024205928002347
0.13184402617232
-0.0003404814515907
0.1318383536022
-0.00044166218778157
0.13183189816663
-0.00054557564074828
0.13182483306752
-0.00065172072031275
0.13181734517283
-0.00076022049078112
0.13180968727179
-0.0008717210753432
0.13180219382373
-0.00098714292881743
0.13179527488984
-0.0011071720541842
0.13178940770171
-0.0012325610547323
0.13178512510438
-0.0013636122118626
0.13178300686877
-0.0015009764364117
0.13178365895791
-0.0016443848014388
0.13178771301108
-0.0017945232526802
0.13179581456794
-0.001950335258014
0.13180866945785
-0.0021133842651338
0.13182703648536
-0.0022816414147349
0.13185181791241
-0.0024589733993447
0.13188399405585
-0.0026408912922597
0.13192473563855
-0.0028355742963333
0.13197526400401
-0.0030321537389624
0.13203694850011
-0.0032477603807703
0.13211124308447
-0.0034572622274162
0.13219954472795
-0.0036980859057122
0.13230376525433
-0.0039140869983053
0.13242494839644
-0.0041883733332967
0.13256605532257
-0.0043961592637576
-0.0047218479107653
0.13272657291063
0.1244535320233
-4.5208293531756e-05
0.1244505907123
-0.00014168162319472
0.12444577608546
-0.00023724468619221
0.1244391728715
-0.00033387826879656
0.12443100084237
-0.00043349018683471
0.12442146433339
-0.00053603915674794
0.12441072563918
-0.00064098204799316
0.1243989564382
-0.00074845130898847
0.1243863906812
-0.00085915533522247
0.12437333874
-0.00097409100274149
0.12436019096743
-0.0010940242954217
0.1243473996299
-0.0012197697301843
0.12433547803099
-0.001351690625382
0.12432497660111
-0.001490475018705
0.12431648572966
-0.0016358939419889
0.12431060805323
-0.0017886455881251
0.12430798207751
-0.0019477092938902
0.12430928886403
-0.0021146910628128
0.12431528959387
-0.0022876421549687
0.12432687686868
-0.0024705606834342
0.12434503569615
-0.0026590501274755
0.12437097390385
-0.0028615125098351
0.12440589906615
-0.0030670789047992
0.12445132247676
-0.0032931837923194
0.1245086138169
-0.0035145535658074
0.12457941017155
-0.0037688822559633
0.12466546846005
-0.0040001452802877
0.12476804402393
-0.0042909488896185
0.12489088316033
-0.0045189983933677
-0.0048632838092001
0.1250323190638
0.11746818641682
-4.3850973681232e-05
0.11746451048824
-0.0001380057490768
0.11745847554458
-0.00023120979936886
0.11745015373262
-0.0003255565119761
0.11743975069697
-0.00042308720282707
0.11742745555842
-0.00052374406590469
0.1174134173992
-0.00062694393268529
0.11739779382062
-0.00073282777104769
0.11738079755321
-0.0008421591057467
0.11736270991591
-0.00095600340134919
0.11734389804759
-0.0010752124614963
0.11732478110454
-0.001200652820553
0.11730584669626
-0.0013327562498785
0.1172876038169
-0.0014722321717169
0.11727062551899
-0.001618915676159
0.1172554677566
-0.0017734878575007
0.11724276781876
-0.0019350093873561
0.11723315297927
-0.0021050762538968
0.11722740257158
-0.002281891776757
0.11722635198058
-0.0024695101202872
0.11723100606238
-0.0026637042350345
0.11724256680458
-0.0028730732750834
0.11726217966717
-0.0030866917874258
0.11729161561892
-0.0033226197606332
0.11733182906357
-0.0035547670235091
0.11738550957052
-0.0038225627723283
0.117452751561
-0.0040673872772086
0.1175372381063
-0.0043754354396121
0.11763902710395
-0.0046207873962272
-0.0049868314155969
0.11776257470155
0.11087491872801
-4.2284871640219e-05
0.11087060150257
-0.00013368860871554
0.11086350098208
-0.0002241093674658
0.11085367001495
-0.00031572563178946
0.11084130699304
-0.00041072426406931
0.11082659059223
-0.00050902774396181
0.11080964814345
-0.0006100015587285
0.11079061623767
-0.00071379593668735
0.11076968163021
-0.00082122456698091
0.11074709917059
-0.00093342100844064
0.11072321345051
-0.0010513268066661
0.11069840488255
-0.0011758443168994
0.11067312882862
-0.0013074802595504
0.11064784467004
-0.0014469480762667
0.11062310870094
-0.0015941797696937
0.1105994123765
-0.0017497915952146
0.11057740424969
-0.0019130013218797
0.11055761478759
-0.0020852868520387
0.11054088986789
-0.0022651669155846
0.11052789926485
-0.0024565195734821
0.11051980139184
-0.0026556064151446
0.11051755473578
-0.0028708266684738
0.11052251314873
-0.0030916502455986
0.11053630536618
-0.0033364120188936
0.11055973542689
-0.0035781971203236
0.11059663322403
-0.0038594606008355
0.11064479141621
-0.0041155454964619
0.11071387600427
-0.0044445200520501
0.11079055136065
-0.0046974627768705
-0.0050952382023499
0.11089895811695
0.10465173152518
-4.0550527567493e-05
0.10464689615104
-0.000128853351876
0.10463889987666
-0.00021611321262003
0.1046277643069
-0.00030459017950417
0.10461368868321
-0.00039664875404651
0.10459687147949
-0.00049221064977239
0.10457743183479
-0.0005905620198405
0.10455545424825
-0.00069181845293349
0.10453108026346
-0.00079685068270831
0.10450455170864
-0.0009068925525163
0.10447618918129
-0.0010229643770985
0.10444633171028
-0.0011459869428619
0.10441539613721
-0.0012765447828595
0.10438378927301
-0.0014153413078454
0.10435204676323
-0.0015624373551265
0.10432059514906
-0.0017183400753874
0.10429010068234
-0.0018825069483962
0.1042609747032
-0.0020561609643507
0.10423416709827
-0.0022383593996829
0.10421006567878
-0.0024324182394535
0.10419016990484
-0.0026357107223017
0.10417478647323
-0.0028554433125643
0.10416618876319
-0.0030830526056854
0.10416456138278
-0.0033347847026549
0.10417259678012
-0.0035862325759113
0.10419160542084
-0.0038784692934339
0.10422182366666
-0.0041457637885162
0.10427480094463
-0.0044974973723007
0.10433103704404
-0.0047536989180026
-0.0051890883480883
0.1044248871379
0.098777827124253
-3.8659507129942e-05
0.098772608147526
-0.0001236345131961
0.098763895468612
-0.00020740067262099
0.09875169138639
-0.00029238623394193
0.098736152243708
-0.00038110974469191
0.098717501621203
-0.00047356015728137
0.098695956852769
-0.00056901737864222
0.098671503708971
-0.00066736543441086
0.098644189388006
-0.00076953648572982
0.09861428183707
-0.00087698512488882
0.098582059806875
-0.00099074246980086
0.09854781653379
-0.001111743792508
0.098511933357062
-0.0012406617286002
0.098474769670421
-0.0013781777434318
0.098436806022144
-0.0015244738284906
0.098398415314218
-0.0016799494883215
0.098360254163794
-0.0018443459173242
0.098322656731989
-0.0020185636496822
0.098286620835125
-0.002202323616331
0.098252310282104
-0.0023981077950121
0.098221506627724
-0.0026049071699262
0.098193806560408
-0.0028277433398511
0.098172670077979
-0.0030619162098727
0.098155930272581
-0.0033180449760183
0.098150577629658
-0.0035808800037134
0.098149821341775
-0.0038777130680082
0.098167090821578
-0.0041630333232248
0.098187387112711
-0.0045177937140158
0.098229910674171
-0.0047962225315762
0.098341465966104
-0.0053006437039593
0.39470039528145
0.0046413158200834
0.39021840982854
0.0044819854145775
0.3859002264165
0.0043181833737599
0.38175019988603
0.0041500264917882
0.37777254578574
0.0039776540610516
0.37397134056133
0.00380120518443
0.37035051195756
0.0036208285630866
0.36691382919444
0.0034366827216423
0.36366489589899
0.0032489332532889
0.36060714594419
0.0030577499119202
0.35774384054687
0.0028633053538639
0.35507806538482
0.0026657751179935
0.35261272693496
0.0024653384053749
0.35035054852365
0.0022621783663903
0.348294066211
0.0020564822674752
0.34644562485926
0.0018484413062934
0.34480737413343
0.0016382506803194
0.34338126461339
0.0014261094744311
0.34216904385221
0.0012122207156776
0.34117225250647
0.00099679130028689
0.34039221993639
0.00078003252488027
0.3398300584641
0.00056216142723425
0.33948665119431
0.00034340722506967
0.33936259802834
0.00012405312145485
0.33945845640759
-9.5858423401941e-05
0.33977460903342
-0.00031615266977343
0.34031095333243
-0.00053634434260263
0.34106727207743
-0.00075631878840502
0.34204313233511
-0.00097586030074326
0.34323787362068