/*--------------------------------*- C++ -*----------------------------------*\
| =========                 |                                                 |
| \\      /  F ield         | OpenFOAM: The Open Source CFD Toolbox           |
|  \\    /   O peration     | Version:  2112                                  |
|   \\  /    A nd           | Website:  www.openfoam.com                      |
|    \\/     M anipulation  |                                                 |
\*---------------------------------------------------------------------------*/
FoamFile
{
    version     2.0;
    format      ascii;
    arch        "LSB;label=32;scalar=64";
    class       volScalarField;
    location    "4.8";
    object      p;
}
// * * * * * * * * * * * * * * * * * * * * * * * * * * * * * * * * * * * * * //

dimensions      [0 2 -2 0 0 0 0];

internalField   nonuniform List<scalar> 
22000
(
0.11385054594381
0.11381577397783
0.11374386020707
0.11363302930174
0.11348227026064
0.11329147853434
0.11306095417429
0.11279095283514
0.11248155341187
0.112132720142
0.11174439294334
0.11131653997974
0.1108491626265
0.1103422887009
0.10979595729216
0.10921022943172
0.10858518073617
0.10792093321131
0.10721762581859
0.10647547312724
0.10569467399758
0.10487554522484
0.1040183049522
0.10312341949632
0.10219109945264
0.10122211068069
0.10021656057111
0.099175711178061
0.098099216306949
0.096989301058072
0.11450374824663
0.11446760195438
0.11439433088044
0.11428232844685
0.11413059597027
0.11393894475182
0.11370758066312
0.11343669932312
0.11312634439393
0.11277645010551
0.11238691955659
0.11195767658311
0.11148867083331
0.1109798781063
0.11043128197897
0.10984289330933
0.10921472750345
0.1085468555389
0.10783934169133
0.1070923541282
0.10630599736163
0.10548056780026
0.10461615583567
0.10371326462811
0.10277189775664
0.10179296867709
0.10077620998943
0.099723141605077
0.098632619697346
0.097507006895035
0.11569244414912
0.11565597876436
0.11558217258296
0.11546961346368
0.11531741086404
0.1151253542389
0.1148935658459
0.11462215826892
0.11431110751752
0.11396028660565
0.11356953099462
0.11313868931406
0.11266762549235
0.11215622747798
0.11160437984011
0.11101199946627
0.11037898903596
0.10970532728476
0.10899094919568
0.10823594859035
0.10744026850948
0.10660417635501
0.10572752885557
0.10481090434602
0.10385392417381
0.10285780917394
0.10182160959968
0.10074745536659
0.099632786565375
0.098480546522206
0.117326400326
0.11728999879271
0.11721631663635
0.11710396745956
0.11695206897541
0.11676038522463
0.1165289810486
0.11625789497699
0.11594702066736
0.11559614276156
0.11520499746377
0.11477332592206
0.11430087049317
0.11378739372079
0.11323263715182
0.11263638103105
0.11199836331205
0.11131842693807
0.11059631489791
0.10983200702374
0.10902520356693
0.10817611937629
0.10728426214519
0.1063503103227
0.10537331694098
0.10435491567095
0.10329312975542
0.10219090621529
0.10104359123478
0.099854872713197
0.11932391548607
0.11928785168225
0.11921482541563
0.11910346382512
0.11895287194586
0.11876277112482
0.11853315487961
0.11826397128955
0.11795500888648
0.11760593569235
0.1172163558618
0.11678586800925
0.11631405360772
0.11580050910069
0.11524478602772
0.11464648208154
0.11400511377857
0.11332033838026
0.11259163663634
0.1118188266335
0.1110012776594
0.11013912329648
0.10923140251533
0.10827890474049
0.10727991940904
0.10623658487583
0.10514557120648
0.10401085890931
0.10282513038705
0.10159305356106
0.12161098148689
0.12157560455878
0.12150393636657
0.12139462822515
0.12124676963051
0.12106002239497
0.12083428494107
0.12056939036773
0.12026499713282
0.11992062973281
0.11953572901639
0.11910971641907
0.11864197269917
0.11813188656401
0.11757877123344
0.11698199443196
0.11634079267612
0.11565458599663
0.11492252064863
0.11414420241289
0.11331857642106
0.11244565614901
0.11152388100481
0.11055415075139
0.10953379295473
0.10846552897958
0.10734435360807
0.10617546251676
0.10494831936837
0.10366869284727
0.12412053874279
0.12408630028041
0.12401691033088
0.12391104256127
0.12376776388927
0.12358666518252
0.12336753150395
0.12311005932593
0.12281375400111
0.1224779719328
0.12210196204765
0.1216849365474
0.12122603796461
0.12072440712681
0.1201790711875
0.11958911955141
0.11895344809841
0.11827118453576
0.11754106343605
0.11676242112496
0.11593367798039
0.11505467970125
0.11412312944419
0.11314002346809
0.11210152356426
0.1110109934502
0.10986143178183
0.10865938837112
0.10739057858891
0.10606187129118
0.12679169151524
0.12675913261236
0.12669311696745
0.12659234593231
0.12645585625182
0.12628315741275
0.12607390872612
0.12582765361634
0.12554372442403
0.12522128738623
0.12485937448151
0.12445695997657
0.12401291348861
0.12352608978682
0.1229951846868
0.12241896325337
0.12179592305519
0.12112484658422
0.1204039809791
0.11963233496063
0.11880770233781
0.11792970451858
0.11699516675582
0.11600514544767
0.11495442363273
0.11384702348316
0.11267361523814
0.11144219141957
0.11013422908954
0.10875758765751
0.12956916758751
0.12953889667742
0.12947748461298
0.12938367395083
0.12925646961566
0.12909528972574
0.1288996570435
0.12866895070089
0.12840231596634
0.12809871171102
0.127756932566
0.12737569126713
0.12695355762654
0.12648906906788
0.12598055184822
0.12542640472394
0.12482467350588
0.12417374297931
0.12347129926107
0.12271596099715
0.12190479955806
0.1210371402301
0.12010881081609
0.11912085339124
0.11806649996883
0.11695039191926
0.11576055027358
0.11450644460751
0.1131647365815
0.11174405446506
0.13240306915256
0.13237573689029
0.13232024474437
0.13223539577403
0.13212016704946
0.13197387844313
0.13179590766972
0.13158546309922
0.13134149630064
0.13106274946491
0.13074776786102
0.13039498666043
0.13000265602962
0.12956897063724
0.12909185918092
0.12856931735153
0.12799889842999
0.12737853673121
0.12670530487056
0.12597735251315
0.12519097332394
0.12434506703528
0.12343442856701
0.12245988641384
0.12141309635754
0.12029912521989
0.11910311498178
0.11783608828953
0.11646895362176
0.11501171777264
0.13524880316006
0.13522507891776
0.13517686057605
0.13510303499618
0.13500256179999
0.13487466099358
0.13471856081352
0.13453329752268
0.13431762976078
0.13407008239224
0.1337889486327
0.13347237959239
0.1331182981332
0.13272454045265
0.13228862309109
0.13180810852181
0.13128003996542
0.1307018433232
0.13006995955033
0.12938196266799
0.12863336857377
0.1278224644824
0.12694306434212
0.12599548050268
0.12496991801439
0.12387154633505
0.12268244601901
0.12141583621108
0.12003346139043
0.11854877563379
0.1380670899404
0.13804763490775
0.13800803107704
0.13794727447714
0.13786432112088
0.13775829527028
0.1376282774032
0.13747313659369
0.13729144706478
0.13708152560817
0.13684142156625
0.13656900760305
0.1362618836992
0.13591752686045
0.13553303920321
0.13510553654027
0.13463153840128
0.1341079360702
0.13353050590291
0.13289620680913
0.1321996977434
0.13143861835248
0.13060564315553
0.12970052949857
0.12871186153329
0.1276445968391
0.12647830006728
0.12522652922534
0.1238457369543
0.12234912909292
0.14082397904039
0.14080942311638
0.14077971169708
0.14073397724604
0.1406711902243
0.14059038833051
0.14049051237123
0.14037027644745
0.14022808699262
0.14006207175917
0.13987005544835
0.13964965057792
0.13939815115046
0.13911268991651
0.13878996656395
0.13842665789072
0.13801876069612
0.13756262600997
0.13705334912515
0.13648725449875
0.13585809256503
0.13516282061261
0.13439286001544
0.13354738893183
0.13261312926588
0.13159489596951
0.13046922993507
0.1292502132537
0.12788895764694
0.12639673214425
0.14349081894943
0.14348173802
0.14346309072757
0.14343417274727
0.1433939889908
0.1433415048599
0.14327553636033
0.14319466216905
0.14309714550673
0.14298095325331
0.14284371536476
0.1426828150146
0.14249527108769
0.14227790282424
0.14202703651942
0.14173893697376
0.14140909953798
0.14103335193478
0.14060611139466
0.14012307017942
0.13957704716252
0.13896430049675
0.1382749315454
0.13750748562151
0.13664672251219
0.13569718111494
0.13463220508491
0.13346633963005
0.13214426533116
0.13067628042257
0.14604415208651
0.14604104745569
0.14603449102406
0.14602396976916
0.14600854130578
0.14598711599906
0.14595840581869
0.14592088090621
0.14587269357529
0.14581168654761
0.14573533486065
0.1456408348703
0.14552497438207
0.14538430476767
0.14521482433506
0.14501243107518
0.144772161313
0.14448935845508
0.14415779417842
0.14377255023955
0.14332552770413
0.14281227800954
0.14222157873428
0.14155127420976
0.14078413589057
0.13992427254789
0.13894169453066
0.13785125724581
0.13659032334664
0.13516846159557
0.14846552575143
0.14846881545615
0.14847520227856
0.14848439184289
0.1484955213136
0.14850746602299
0.14851885679592
0.14852808711543
0.14853323695194
0.14853206859632
0.14852195018081
0.148499943594
0.14846266118908
0.14840644551898
0.14832702796932
0.14822000217943
0.14808000876006
0.14790196667688
0.14767906323499
0.14740581604074
0.14707325893315
0.14667625186805
0.14620227861601
0.14564845859387
0.14499556601532
0.14424717783826
0.14336989670979
0.14237855537825
0.14120275283094
0.13985117336839
0.15074119144896
0.15075119626392
0.15077118586046
0.15080111741547
0.15084022641542
0.1508873697909
0.15094112839808
0.15099985654686
0.15106160506397
0.15112410479059
0.15118467128613
0.15124029180214
0.15128746821252
0.1513224042028
0.15134063886658
0.15133753855494
0.15130743040362
0.15124488740788
0.15114259914432
0.15099459149069
0.15079111423194
0.15052639386143
0.15018667580817
0.14976839172608
0.14925032632307
0.1486355079131
0.14788714913435
0.14701946466682
0.14595460687187
0.14469654123004
0.15286174383074
0.15287868297667
0.15291273963246
0.15296414025684
0.15303223866919
0.15311590169007
0.1532136879487
0.15332395034401
0.15344475697261
0.15357385938527
0.15370857924578
0.15384589463218
0.15398226955339
0.15411384737458
0.1542360600566
0.1543441353076
0.15443218345688
0.15449452610762
0.1545234614405
0.15451261855764
0.15445157396145
0.1543340151276
0.15414505040942
0.15388050809213
0.15351726555764
0.15305778264657
0.15246225815001
0.15174349287661
0.15081871028697
0.14967719271336
0.15482169970256
0.15484569230765
0.15489407198767
0.1549673612542
0.15506505312494
0.15518604267321
0.15532889843287
0.15549201279027
0.15567351785924
0.15587123724299
0.15608255804995
0.15630451600744
0.15653361452088
0.15676602062414
0.15699715348431
0.1572221999471
0.15743516373629
0.15763022211958
0.15779940601063
0.15793605652241
0.15802921011218
0.15807212097336
0.15804891296025
0.15795489301643
0.15776530387145
0.1574817022675
0.15706242646822
0.15651565381667
0.15576319138359
0.15476741753279
0.156619020459
0.15665009256098
0.15671286198284
0.15680816685568
0.15693565485612
0.15709427226291
0.15728263172407
0.15749920608679
0.15774223858559
0.15800967498491
0.15829902731721
0.15860745382548
0.15893157555574
0.15926766504116
0.15961122787319
0.15995750846143
0.16030052824399
0.16063443153805
0.1609511330629
0.16124379686089
0.16150109304652
0.1617159246811
0.16187164234714
0.16196302571021
0.16196420341416
0.16187537152754
0.16165485577793
0.16130377682622
0.16074974147295
0.1599331832989
0.15825460623976
0.15829270587893
0.15836976560878
0.15848695099551
0.15864407823571
0.15884016330925
0.15907389415484
0.15934386458081
0.1596484745376
0.1599858380576
0.16035365221589
0.16074926208848
0.16116948997682
0.16161079340856
0.16206887118725
0.16253911389547
0.16301569860613
0.1634928278162
0.16396248778062
0.16441774513396
0.16484716435014
0.1652433183739
0.16558911192342
0.16587864294374
0.16608534453246
0.16620792967372
0.16620541875517
0.16607407292434
0.16574346991764
0.16513753543665
0.15973177963641
0.15977677351837
0.15986787811254
0.1600065912447
0.160192916976
0.16042594984599
0.16070446271435
0.1610272037601
0.16139276940229
0.16179948261327
0.1622452831799
0.16272775917804
0.16324401435944
0.16379076191889
0.16436401431205
0.164959394554
0.16557141120506
0.16619438732269
0.16682063235666
0.1674430999093
0.16805066005781
0.16863539785839
0.16918042015276
0.16967876182777
0.17010356911922
0.17045189004727
0.17068160544807
0.17078972942371
0.17070223824903
0.17034047956412
0.16105585929324
0.16110744058336
0.1612121181614
0.16137174237831
0.1615865494439
0.16185575193654
0.16217817427083
0.1625527251352
0.16297820047525
0.16345316275596
0.16397585740429
0.16454417109497
0.16515556090531
0.16580703876924
0.16649502175241
0.16721541103406
0.16796323103047
0.16873295811988
0.16951757417782
0.17030980352348
0.17109947399626
0.17187765661111
0.1726289655889
0.17334419310556
0.17399829864083
0.17458478009626
0.175059423059
0.17541917478702
0.17557748175118
0.17548472715853
0.16223403394858
0.16229149703045
0.16240878344013
0.16258823192157
0.16283019633121
0.16313418644247
0.16349916024132
0.16392415945649
0.16440810755121
0.16494982021091
0.16554788984375
0.16620053778021
0.16690564242732
0.1676605878574
0.16846228358354
0.16930693408515
0.17019015206293
0.17110649376551
0.17204983610397
0.17301246780054
0.17398590667696
0.17495939467794
0.17592107742725
0.17685675973681
0.17774898011842
0.17858063524006
0.17931908932476
0.17994052644625
0.18034838465531
0.18048816571138
0.16327576681956
0.16333792599999
0.1634660170891
0.16366351135463
0.16393021893352
0.16426565159389
0.16466958737173
0.1651412684939
0.16567966353982
0.16628393456955
0.16695306934143
0.16768562855568
0.16847988458965
0.16933365975507
0.17024448248981
0.17120910028154
0.17222387843011
0.17328362297462
0.1743830772107
0.17551408576617
0.17666989727732
0.17783777433247
0.17901045930229
0.18016702260012
0.18130279780695
0.18238057054042
0.18340555624871
0.18430062364962
0.18505008920541
0.18536715957786
0.095915529334091
0.094883950626658
0.093824826778919
0.092739819071373
0.091630783334584
0.09049910932094
0.089345676939956
0.088171194087523
0.086976478531566
0.085762526935559
0.084530462848184
0.083281476846546
0.082016795480399
0.080737673015873
0.079445388278145
0.078141240189075
0.076826540342124
0.075502604885713
0.074170747948489
0.072832279975123
0.071488512954771
0.070140771942949
0.068790413574287
0.067438844474675
0.066087506714368
0.064737459542923
0.06338973358135
0.062045706878265
0.060706882533494
0.059374714930242
0.058050560800132
0.056735693547207
0.055431334770671
0.054138668281074
0.05285884298309
0.05159296072643
0.050342072673366
0.049107164512181
0.047889167869963
0.046688937967797
0.045507284135621
0.044344922177538
0.04320254971644
0.042080744408598
0.040980120088732
0.039901100593711
0.038844221725861
0.037809674187323
0.036797830158521
0.035808375724934
0.09642202324977
0.095382373364272
0.094311142762819
0.093212903961318
0.092091077424105
0.090947015051113
0.089780796553078
0.088592479120881
0.0873826452565
0.086152295479626
0.084902588126364
0.083634697957101
0.082349798644965
0.081049092911921
0.079733836131204
0.078405340708765
0.077064966965592
0.07571411110561
0.074354194361549
0.072986656061376
0.071612945008421
0.070234507011042
0.06885275950738
0.067469058269982
0.066084695550813
0.064701466132536
0.063321234994221
0.061945469949603
0.06057550259543
0.059212692033133
0.057858447193581
0.056514192834913
0.055181329617237
0.053861205168842
0.052555105800207
0.051264253286741
0.049989814648083
0.048732888878598
0.047494514407094
0.046275642846224
0.045077169637456
0.043899891790982
0.042744568606383
0.04161184159147
0.040502342289221
0.039416566996947
0.038355023583936
0.037318145448014
0.036306389779504
0.035320739730397
0.097371256435474
0.096303849243726
0.095196059794384
0.094058840323158
0.092899123335333
0.091718442599385
0.090515506252805
0.089289298545279
0.088040149114819
0.086769260231277
0.085478030623118
0.084167759416379
0.082839658415536
0.081494953693808
0.080134949602064
0.078761036693009
0.077374670108019
0.075977346205688
0.0745705867568
0.073155930140242
0.071734927466062
0.070309142574649
0.068880161007451
0.0674496115628
0.066019193176283
0.06459049814609
0.06316505649849
0.061744436605733
0.060330203451551
0.058923910116272
0.057527095450685
0.056141268139494
0.054767892778845
0.05340838179422
0.052064095990919
0.050736330522125
0.049426313738659
0.048135191910608
0.046864045483814
0.045613859646167
0.044385558061891
0.043179946965451
0.041997788407496
0.040839705292854
0.039706303588821
0.038598080216411
0.037515522574509
0.036459458977386
0.035430785278058
0.034433500051671
0.098709220756597
0.097595885323491
0.096429696807611
0.09523167456271
0.094013924751549
0.092778029126697
0.091520523712269
0.090238778303353
0.088932769230835
0.087604004801156
0.086254216150029
0.084884841378274
0.083497094715245
0.082092180692671
0.080671418472306
0.079236254690467
0.077788225619911
0.076328919654276
0.0748599565355
0.073382979006543
0.071899648289064
0.070411640242259
0.068920639731962
0.067428331176434
0.065936382659595
0.064446466625448
0.062960268316549
0.06147946466841
0.060005723098021
0.058540692533696
0.057085996677893
0.055643226937262
0.054213939811678
0.052799642279116
0.051401785316835
0.050021744912886
0.048660831660311
0.04732026680936
0.04600120811022
0.04470469910605
0.04343172978866
0.042183148176374
0.040959781549626
0.039762295126078
0.038591369266538
0.037447625955351
0.036331666412828
0.035244981573611
0.034189054076501
0.033171878827065
0.10040239601688
0.099228156403012
0.097984729856631
0.096706957300223
0.095413716061144
0.094106406930666
0.092778545454392
0.091425346905692
0.090046357713485
0.088643519691545
0.087219004828493
0.085774422192036
0.084310976314919
0.082829833074515
0.081332322740914
0.079819957137942
0.078294367040715
0.076757245275207
0.075210318333426
0.073655335742858
0.07209406376918
0.07052827806494
0.06895975674596
0.067390275846071
0.065821609829746
0.064255526599729
0.062693789997656
0.061138158656562
0.059590381705581
0.058052191838178
0.056525302240035
0.05501139587628
0.053512118604973
0.052029059667847
0.050563753347341
0.049117656303135
0.047692166624666
0.046288580476378
0.044908137833569
0.043551940718111
0.042221060132561
0.040916383586696
0.039638820689497
0.038389057005274
0.037167855887072
0.035975924601572
0.034813993869438
0.033684356346894
0.032589509573588
0.031543210397289
0.10242695265955
0.10117863146316
0.099840550334025
0.098465439703987
0.097080593692198
0.095686936876857
0.094274068836496
0.092834521880935
0.091367376860204
0.089875171077767
0.08836064326471
0.086825609841885
0.085271253054648
0.08369868416397
0.082109241753231
0.080504511236119
0.078886231874654
0.077256214544426
0.075616303740091
0.073968366033105
0.072314282654826
0.07065593959809
0.068995218674117
0.067333992009517
0.065674120523504
0.06401745250746
0.062365832485
0.060721099030164
0.059085086210342
0.057459617710095
0.055846501375689
0.054247512543502
0.052664392469766
0.051098828202311
0.049552462280598
0.048026853887126
0.04652351000365
0.045043815354455
0.043589118793475
0.042160592201996
0.040759419511486
0.039386523053451
0.038042939236763
0.036729353718219
0.035446695389336
0.03419573685649
0.032977495144352
0.031795136602405
0.03065252135648
0.02956999147182
0.10476547249997
0.10343144961786
0.10198245539037
0.10049359488401
0.099002307226336
0.097508651755969
0.095997320013889
0.094457599206857
0.092888084021501
0.091292093648736
0.089673067487235
0.088033061205001
0.08637321670487
0.084694570219259
0.082998464990911
0.081286571468697
0.079560754742259
0.077822963206915
0.076075179956272
0.074319408928357
0.072557665725704
0.070791963782329
0.069024302312837
0.067256660779038
0.065491000721339
0.063729258035912
0.061973360190398
0.060225232034289
0.058486798423661
0.056759975348875
0.055046668358256
0.053348755636476
0.051668092075091
0.050006478736595
0.048365679365019
0.046747359523554
0.045153146415182
0.043584517266163
0.04204294491314
0.040529663832744
0.039045992442848
0.037592868141369
0.036171495529275
0.034782514320845
0.033427090256976
0.032105977743652
0.030820622249869
0.029575068340315
0.028375165148281
0.027249203534839
0.10740547774223
0.10597556617171
0.1044003992495
0.10278237495853
0.10117086961141
0.099564583942138
0.097942235802491
0.096289306531106
0.094603907287211
0.092890335534537
0.091152871834416
0.089393850629869
0.087614356111535
0.085815326774466
0.08399810654398
0.082164464730053
0.080316414176523
0.078456061719646
0.076585549137928
0.074707041375644
0.072822715510162
0.070934740189934
0.069045257565939
0.067156374245268
0.065270163112471
0.063388657420922
0.061513877669519
0.059647837852972
0.057792554142278
0.055950039668268
0.054122309107925
0.052311356854606
0.050519166270933
0.048747662128016
0.046998745688594
0.045274207475191
0.043575825982393
0.041905187898662
0.040263927392155
0.038653351889777
0.037074969090821
0.035529723716913
0.034019070253159
0.032543557203501
0.031104725935146
0.029703222503608
0.028341185572814
0.027023494691281
0.025758709073205
0.024584007129314
0.11033764076461
0.10880280864723
0.1070870353947
0.1053255297282
0.10358132827091
0.10185093512366
0.10010587727208
0.09832735776852
0.096513127564337
0.09466869150472
0.092799288122364
0.09090755664845
0.088994515451857
0.087060989744478
0.085108322168725
0.08313839922726
0.081153406588949
0.079155632515116
0.077147399820104
0.075131058865912
0.073108975143001
0.071083499456295
0.069056941248218
0.067031555105511
0.065009543230479
0.06299305650378
0.060984226881168
0.058985176854591
0.056998036168176
0.055024936897053
0.05306802600176
0.05112943546349
0.049211301086008
0.047315697928523
0.045444700681813
0.043600250146747
0.041784311342899
0.039998599460294
0.038244955624497
0.036524764657213
0.034839784256228
0.033190937265843
0.031580025196026
0.030007417307137
0.02847520183652
0.026983736989085
0.025536173638685
0.024138013434075
0.02280143324759
0.021573342571164
0.11355540884402
0.11190750032973
0.11003684884263
0.10811818182222
0.10623003164298
0.10436535649583
0.10248689873003
0.10057109642883
0.098615612271847
0.09662748758314
0.094613043361008
0.092575217446281
0.090514931740946
0.088432888092378
0.086330440967033
0.084209620322371
0.082072815126998
0.079922522473636
0.077761271757512
0.075591628089112
0.073416178400766
0.071237489834547
0.069058073502805
0.066880367350996
0.064706741368437
0.062539489933048
0.060380882672696
0.058233177066115
0.056098642769681
0.053979556876802
0.051878224637022
0.049796940573818
0.047738025681914
0.045703733812941
0.043696347372348
0.04171798438427
0.039770840796039
0.037856781254006
0.035977909995086
0.034135692815691
0.032332218754108
0.030568354409895
0.02884638352621
0.027166385207063
0.025531233827685
0.023940759634437
0.022399575062365
0.020913460787413
0.019499394037159
0.018214592091844
0.11705207055128
0.11528491564053
0.11324575010647
0.11115717413221
0.10911486906289
0.10710663505666
0.10508489755418
0.10302083723592
0.10091225236828
0.098768081198073
0.096595893573742
0.094398909294226
0.092177898248211
0.089933423552005
0.087666875822408
0.085380465589235
0.083076816325459
0.080758662179934
0.078428771383955
0.076089960129167
0.073745077075004
0.071396948880946
0.069048332143887
0.066701889915919
0.06436019766905
0.06202573021199
0.059700930593034
0.057388224929213
0.055090055605039
0.05280887522482
0.050547183428969
0.04830747526127
0.046092298782745
0.043904125724372
0.041745498357643
0.039618751275867
0.037526371987607
0.035470408810759
0.033453306226523
0.031476623338902
0.029542888941608
0.027652874715113
0.025809522850894
0.024012476819954
0.022265713337295
0.020568201731027
0.018926616462003
0.017346452727171
0.015850971315628
0.014507785431689
0.12081937912348
0.11892628250698
0.11670734766312
0.11443865147142
0.11223375880851
0.11007390206908
0.10789993417456
0.10567742413599
0.10340457190744
0.10109257659304
0.098750416353929
0.096381565234873
0.093986576074914
0.091565865994208
0.08912090076474
0.086654113478005
0.084168396666473
0.081666753887354
0.079152227488015
0.076627926798299
0.074097009739557
0.071562612648557
0.06902778900494
0.066495477600132
0.063968510679537
0.061449585913881
0.05894136434946
0.056446485189508
0.053967609680868
0.051507414319275
0.049068643341867
0.04665404068567
0.044266439501546
0.041908582860179
0.039583336600755
0.037293305780038
0.035041345730188
0.032829733112079
0.030661343061344
0.028537850382844
0.026462348650994
0.024435477826271
0.022461047264169
0.02053809079584
0.018672082795132
0.016860684987064
0.015113411311195
0.01343461881468
0.01185571479053
0.010454234275147
0.12484626960606
0.12282452777842
0.12041670957811
0.11795895187311
0.1155840461595
0.11326567219606
0.11093171474464
0.10854149485223
0.10609394748656
0.10360303388997
0.10107927734325
0.098526309643902
0.095944394829138
0.09333381990268
0.090696178968823
0.08803417646953
0.085351008957142
0.082649983514106
0.079934458943948
0.077207885652091
0.074473783885151
0.071735657077622
0.068996915828135
0.066260835341845
0.063530574156315
0.060809099034885
0.058099345259221
0.055404228237272
0.052726692388199
0.0500696984712
0.047436299224672
0.044829553160082
0.042252648077918
0.039708665959358
0.037200877472876
0.034732225947228
0.032306023358559
0.029924839781498
0.027592085324576
0.025309597944542
0.023081169502609
0.020907303641919
0.018792895581841
0.016736216097389
0.014744685951066
0.012814137506757
0.010957899547297
0.0091779727966548
0.0075162397340201
0.0060588225751167
0.12911958481056
0.12696645698615
0.12436431200298
0.12171289441017
0.11916265214298
0.11667984439569
0.11417907636043
0.11161286826498
0.10898114279707
0.10630107598341
0.10358483310956
0.1008360861432
0.098054730514512
0.095240948209487
0.092396530814948
0.089524507941656
0.086628418141034
0.083711909013496
0.080778698501998
0.077832630538652
0.074877648834419
0.071917689583626
0.068956593925971
0.065998050292766
0.063045646976823
0.060102629866926
0.057172298451149
0.054257932985712
0.051362839525838
0.048490340921505
0.04564387797013
0.042826904828433
0.040043053611299
0.037295833988134
0.034589017928994
0.031925978658414
0.02931059617293
0.026745821327486
0.024235722151102
0.021782377325308
0.019390414512892
0.017060246308289
0.014798038579583
0.012601228915314
0.010479576875326
0.0084266256430128
0.0064605874159996
0.0045795922436505
0.0028389067993408
0.0013305785201189
0.13362287456711
0.13133896709894
0.12853925731642
0.12569098941387
0.12296294405271
0.1203124861691
0.11763941780394
0.1148898983137
0.11206570458542
0.10918743990931
0.10626878508827
0.10331333825354
0.10032060204807
0.09729069875599
0.094225686458109
0.091128978726765
0.0880044954018
0.08485626208149
0.081688407411894
0.078505230222055
0.07531116499204
0.072110650798794
0.068908027858584
0.065707464026967
0.062513316018233
0.059328852945569
0.056157917513749
0.053004310296586
0.049871792008924
0.046764133628068
0.043685260820242
0.040639130777335
0.037629926512139
0.0346616992164
0.031738843157242
0.028865278296265
0.026045586419319
0.023283209612755
0.020583031251694
0.01794745842118
0.015382134545166
0.012887439857562
0.010471002511729
0.008129433744741
0.0058750867362355
0.003698971342666
0.0016249760273493
-0.00035398115938539
-0.0021661331767287
-0.0037173868598368
0.13833707804038
0.13592575300239
0.13292685561194
0.1298809959167
0.12697600834451
0.12415715589316
0.12130791227217
0.11836917470072
0.11534563330538
0.11226148417739
0.10913168714555
0.10595958740487
0.10274428861801
0.09948594239747
0.096186963180428
0.092851201534557
0.089482994543929
0.086086785771837
0.082667167058429
0.079228963431736
0.075777192307636
0.072316902020422
0.068853052853071
0.065390588073377
0.061933581650677
0.05848671474013
0.055054184216325
0.0516403524356
0.048249551564354
0.044886112126428
0.04155455930715
0.038259488247565
0.035005764110037
0.031798129688468
0.028641737062363
0.025541213232025
0.02250199643086
0.019528166058167
0.016625610891863
0.013797160276575
0.011049737043844
0.0083836875389295
0.0058084488733989
0.0033197063677562
0.00093275027900985
-0.0013641407357101
-0.0035410982008219
-0.0056111774291815
-0.0074840910865073
-0.0090670020311031
0.14324120198357
0.14070947499087
0.13750930435578
0.13426781421133
0.13119016484801
0.12820447831867
0.12517711198861
0.12204509854088
0.11881707463514
0.11552096116829
0.11217269366699
0.10877515348664
0.10532707085695
0.10182875151049
0.09828305914579
0.094694329260015
0.091067348129529
0.087407019237776
0.083718458313495
0.080007091614414
0.076278592426575
0.072538727991494
0.068793135509312
0.065047211110746
0.06130615989496
0.057575277052765
0.053859401159494
0.050163450468524
0.046492508112909
0.042851674781634
0.039246228368359
0.035681569988245
0.032163397852272
0.028697342886891
0.025289469859555
0.021945342224807
0.018671399588072
0.015472603859099
0.012356003516438
0.0093250506151622
0.0063881948521285
0.0035457783625583
0.00080952700185403
-0.0018261160558661
-0.0043421401002924
-0.0067537551790902
-0.0090243258955969
-0.011174118534152
-0.013093373824197
-0.014690847125824
0.1483062495959
0.14566305273318
0.1422667720632
0.13883603958295
0.1355920044591
0.13244271950377
0.129237131404
0.12590976342507
0.12247412884256
0.11896182460959
0.11538934577116
0.11175890918927
0.10806895769922
0.10432011845924
0.10051580464834
0.096660859976684
0.092760532259347
0.088820224587405
0.084845642796114
0.080842895726991
0.076818402487927
0.072778719644302
0.068730315204836
0.064679410607075
0.060632128578354
0.056594562280114
0.052572403402141
0.048571367761631
0.04459740591406
0.040656565982783
0.036755062182394
0.032899296525846
0.029095978100455
0.025351873387789
0.021674134373481
0.018069577118396
0.014545766450585
0.011108944193763
0.0077673482885914
0.0045255366218156
0.0013934791733226
-0.0016280613801727
-0.0045248610502706
-0.0073037583505607
-0.0099411173677412
-0.012456716794021
-0.014805278950962
-0.01701680171023
-0.018963227704374
-0.020559387104339
0.15350052834774
0.1507564155877
0.14717557644694
0.14356672276526
0.14016542455543
0.13685761276316
0.13347543896586
0.12995272137746
0.12630862889411
0.12257804669538
0.11877746634474
0.11490827283273
0.11096876590409
0.10696007518028
0.10288625108354
0.09875266587328
0.094565049308606
0.090329360005684
0.086051967980782
0.081739744562785
0.077399935544792
0.073039969797565
0.068667272351795