/*--------------------------------*- C++ -*----------------------------------*\
| =========                 |                                                 |
| \\      /  F ield         | OpenFOAM: The Open Source CFD Toolbox           |
|  \\    /   O peration     | Version:  2112                                  |
|   \\  /    A nd           | Website:  www.openfoam.com                      |
|    \\/     M anipulation  |                                                 |
\*---------------------------------------------------------------------------*/
FoamFile
{
    version     2.0;
    format      ascii;
    arch        "LSB;label=32;scalar=64";
    class       surfaceScalarField;
    location    "16.2";
    object      phi;
}
// * * * * * * * * * * * * * * * * * * * * * * * * * * * * * * * * * * * * * //

dimensions      [0 3 -1 0 0 0 0];

oriented        oriented;

internalField   nonuniform List<scalar> 
43645
(
0.3951239969254
-5.1238337971453e-06
0.39513924614988
-1.5249191295837e-05
0.39516458005025
-2.5333864448777e-05
0.39519996839713
-3.5388309803356e-05
0.39524535251782
-4.5384083478525e-05
0.39530066790009
-5.5315345527671e-05
0.39536585281665
-6.5184880593374e-05
0.395440848795
-7.4995943301698e-05
0.39552559566979
-8.4746840763161e-05
0.39562003278447
-9.443708168459e-05
0.39572409438001
-0.0001040615635998
0.39583771589259
-0.00011362148167948
0.39596082246954
-0.00012310654707975
0.39609334244778
-0.00013251994934454
0.39623518208276
-0.00014183960702894
0.39638625986895
-0.00015107775909238
0.39654645086699
-0.00016019097175457
0.39671566820969
-0.00016921731709259
0.39689373660993
-0.00017806837525804
0.39708058418862
-0.00018684755418466
0.39727595334625
-0.00019536913351249
0.39747984466112
-0.0002038912910182
0.39769184637571
-0.00021200169090133
0.39791215228121
-0.00022030588184307
0.39814000986729
-0.00022785756235342
0.39837606326208
-0.00023605337089132
0.39861878350471
-0.00024272021845254
0.39886986787973
-0.00025108435081177
0.39912604291426
-0.0002561750103831
-0.00026538641161441
0.39939142935076
0.3729473038502
-9.872891272123e-06
0.37296149380069
-2.943908558315e-05
0.37298528032312
-4.9120329651015e-05
0.37301863225514
-6.8740184698919e-05
0.37306148865695
-8.8240428966045e-05
0.37311379160207
-0.00010761823542974
0.37317549003977
-0.00012688326435888
0.37324653695097
-0.00014604280190311
0.37332688380143
-0.00016509364001927
0.37341648227155
-0.00018403550198917
0.37351528010084
-0.00020285934447709
0.37362322717139
-0.00022156850518623
0.37374026380493
-0.00024014313493107
0.37386633380644
-0.00025858990644092
0.3740013596184
-0.0002768653758018
0.3741452762923
-0.00029499439091083
0.37429797698268
-0.00031289162107554
0.37445939312575
-0.00033063341997259
0.37462937031135
-0.00034804552141904
0.37480785621973
-0.0003653334237257
0.37499461716649
-0.00038213004190782
0.37518967215639
-0.00039894624284066
0.3753926372292
-0.00041496672580907
0.37560371932961
-0.00043138794436728
0.37582220322738
-0.00044634142211467
0.37604873470052
-0.00046258480576369
0.37628184953433
-0.00047583501364249
0.37652322168281
-0.00049245646072431
0.37676971397178
-0.00050266726158134
-0.0005210628822817
0.37702539048171
0.35201549784502
-1.4473157619972e-05
0.35202920133141
-4.314251477857e-05
0.35205205267602
-7.1971616863824e-05
0.35208403983593
-0.0001007272879398
0.35212511593911
-0.00012931647671689
0.35217523225124
-0.00015773449357635
0.3522343470749
-0.00018599803559942
0.35230242504113
-0.00021412071729348
0.35237943191108
-0.00024210046077168
0.35246533660806
-0.00026994015139342
0.35256010632139
-0.00029762901185911
0.35266371235903
-0.0003251744984282
0.35277611686268
-0.00035254759572541
0.35289728672466
-0.00037975972697285
0.35302716699449
-0.00040674560551201
0.35316571800116
-0.00043354535863577
0.35331285706065
-0.00046003064267642
0.35346854517092
-0.00048632149320204
0.35363265340619
-0.00051215372035925
0.35380516459056
-0.00053784457226235
0.35398586782924
-0.00056283324509342
0.35417482345623
-0.00058790183446258
0.35437165867659
-0.00061180191077332
0.35457663233705
-0.00063636156920626
0.35478901429546
-0.00065872334452833
0.35500952862578
-0.0006830990995298
0.35523664174258
-0.00070294809324822
0.3554721669596
-0.00072798164026896
0.35571277602701
-0.00074327629211368
-0.00077106820519185
0.35596278138866
0.33225846930566
-1.8898454655719e-05
0.33227164443701
-5.6317594307419e-05
0.33229359557912
-9.3922706973892e-05
0.33232430936254
-0.00013144101996945
0.33236374351223
-0.00016875057608895
0.33241185907787
-0.00020585001012124
0.33246862684971
-0.00024276575969961
0.33253402590414
-0.00027951972533718
0.33260803888436
-0.00031611339604169
0.33269065533637
-0.00035255655984274
0.33278186625891
-0.00038883989227554
0.33288166981603
-0.00042497801479759
0.33299005568771
-0.00046093342800342
0.333107020249
-0.00049672425009897
0.3332325372612
-0.00053226258074218
0.33336659963349
-0.00056760769497918
0.3335091553617
-0.00060258633589411
0.33366020393058
-0.00063737002784705
0.33381964854487
-0.00067159830105516
0.33398751837836
-0.00070571437261643
0.3341636304192
-0.00073894525311925
0.33434810044805
-0.00077237183065002
0.3345405666107
-0.00080426804077471
0.3347413594165
-0.00083715434219749
0.33494972289939
-0.0008670867943535
0.33516649492085
-0.00089987108749546
0.33539004435724
-0.00092649749564609
0.33562240323602
-0.00096034048495752
0.33585999795397
-0.00098087097667671
-0.0010186707636023
0.33610760054749
0.31361030378662
-2.3144818518491e-05
0.31362293751869
-6.8951281059935e-05
0.31364397925753
-0.00011496440058649
0.31367342048276
-0.00016088220071717
0.31371122372321
-0.00020655377318351
0.31375735957748
-0.00025198582227228
0.31381181257269
-0.00029721871414805
0.31387457870403
-0.00034228581725752
0.31394566065361
-0.000387195307619
0.31402507243123
-0.0004319683008169
0.31411283330632
-0.00047660073211365
0.31420897350367
-0.00052111817818828
0.31431351575737
-0.00056547564902318
0.3144264920367
-0.00060970049789318
0.3145479108969
-0.00065368141048154
0.31467780485241
-0.00069750162093802
0.3148161592683
-0.00074094072304289
0.31496302053554
-0.00078423126696478
0.31511833110897
-0.00082690884686517
0.31528217675632
-0.00086955999263886
0.31545440892562
-0.00091117739526281
0.31563521163253
-0.00095317451039083
0.31582423806893
-0.00099329444986007
0.31602190772652
-0.0010348239721666
0.31622743678697
-0.0010726158267653
0.31644180361917
-0.0011142378910819
0.31666326316931
-0.0011479570165341
0.31689411020217
-0.0011911874882813
0.31713047234768
-0.001217233093101
-0.0012658531128925
0.31737765472788
0.29600875749649
-2.7200416511679e-05
0.29602081403288
-8.1007776769191e-05
0.29604088734881
-0.00013503767599439
0.29606897669091
-0.00018897150294403
0.2961050509945
-0.00024262803787173
0.29614909161616
-0.00029602640605956
0.296201098336
-0.00034922539724682
0.29626108622631
-0.00040227367194578
0.29632908083138
-0.00045518987824155
0.29640512414743
-0.00050801158356645
0.2964892677985
-0.0005607443510577
0.29658157870734
-0.00061342905599389
0.29668211759049
-0.00066601450224059
0.29679095742914
-0.00071854030759459
0.29690814718717
-0.00077087114049722
0.29703376537794
-0.00082311978450201
0.29716784126002
-0.00087501657863489
0.29731047589377
-0.00092686587480246
0.29746165841715
-0.0009780913448045
0.29762154051661
-0.0010294420669834
0.29779001585027
-0.0010796527040277
0.29796734752327
-0.0011305061585696
0.29815321042215
-0.0011791573239198
0.29834812570011
-0.0012297392251554
0.29855128508569
-0.0012757751871488
0.29876382328623
-0.0013267760661023
0.29898387770709
-0.0013680114114935
0.29921402878093
-0.0014213385361811
0.29945008894344
-0.001453293230261
-0.001513695980771
0.29969793183822
0.27939507834683
-3.1044211161455e-05
0.27940649042919
-9.2419825271489e-05
0.2794254897732
-0.00015403698638168
0.27945208364902
-0.00021556534579679
0.27948624808232
-0.00027679243907459
0.27952797621328
-0.00033775450584515
0.27957728431174
-0.00039853346554153
0.27963420808974
-0.0004591974207747
0.27969879791171
-0.00051977967206952
0.27977112632801
-0.00058033997272281
0.27985128049776
-0.0006408984946933
0.27993936776622
-0.00070151629927642
0.28003549096079
-0.00076213767257663
0.28013976863682
-0.00082281796020847
0.28025229512843
-0.0008833976095033
0.28037320049009
-0.00094402512420456
0.28050256394856
-0.001004380015743
0.28064054804128
-0.0010648499466074
0.28078719595296
-0.0011247392359487
0.28094273335149
-0.0011849794451968
0.28110710458743
-0.0012440239197795
0.28128066077357
-0.0013040623245409
0.28146310778806
-0.0013616043181636
0.28165507752194
-0.0014217089385954
0.28185574733745
-0.0014764449819692
0.28206641690557
-0.0015374456131752
0.28228511838267
-0.0015867128671521
0.28251472472845
-0.0016509448604322
0.28275075119508
-0.0016893196757641
-0.0017625876408099
0.28299964287772
0.26371381499812
-3.4649731658087e-05
0.26372449628407
-0.00010310108220571
0.2637422865984
-0.00017182727192718
0.26376719985568
-0.00024047857477998
0.26379921915358
-0.00030881170937198
0.26383835017204
-0.00037688549737353
0.2638846267572
-0.00044481002454036
0.26393810623733
-0.00051267687546759
0.26399886499693
-0.00058053840702255
0.26406700771392
-0.00064848266581512
0.26414265911095
-0.00071654986861106
0.26422596939385
-0.0007848265597926
0.26431708648047
-0.00085325473756048
0.26441617789615
-0.00092190935490946
0.26452338739047
-0.00099060708349746
0.26463890098433
-0.0010595386982829
0.26476285325045
-0.0011283322625957
0.26489547377576
-0.0011974704530569
0.26503686685515
-0.0012661322968351
0.26518733869675
-0.0013354512685573
0.2653468934646
-0.0014035786696003
0.26551597706212
-0.0014731459041396
0.26569433823063
-0.0015399654688232
0.26588272507909
-0.0016100957692068
0.26608031743282
-0.0016740373177872
0.26628858073872
-0.0017457089010793
0.2665054686988
-0.0018036008090965
0.26673413527988
-0.0018796114235089
0.2669698466133
-0.0019250309917127
-0.0020123196966828
0.26721957868777
0.24891262993353
-3.7986953014198e-05
0.24892249015589
-0.00011296128131176
0.24893892441374
-0.00018826150674351
0.24896195350254
-0.00026350764094495
0.24899156744994
-0.00033842563467456
0.24902778425235
-0.00041310227820303
0.2490706552776
-0.00048768102878653
0.24912025996042
-0.0005622815378317
0.24917670157557
-0.00063698000229945
0.24924011769904
-0.00071189876997591
0.24931067141458
-0.00078710356542752
0.24938855696172
-0.00086271208874361
0.24947396904357
-0.00093866680177673
0.24956712608748
-0.0010150663816704
0.24966822406082
-0.0010917050401822
0.24977750791227
-0.001168822533478
0.24989517193018
-0.001245996264636
0.25002151672187
-0.0013238152291845
0.25015671412976
-0.0014013296894236
0.25030115550176
-0.001479892625453
0.25045491419966
-0.0015573373525501
0.25061853505599
-0.0016367667455931
0.25079182387685
-0.0017132542748681
0.25097564595467
-0.0017939178322009
0.251169206592
-0.0018675979402499
0.25137412885206
-0.0019506311462119
0.25158832904891
-0.0020178009909321
0.25181521095878
-0.0021064933185136
0.25204987084806
-0.0021596908665799
-0.0022621808341693
0.25229973200094
0.23494212667063
-4.1026045466263e-05
0.23495107746102
-0.00012191205265739
0.23496600970612
-0.00020319373295081
0.23498695104273
-0.0002844489589324
0.23501389818273
-0.00036537275640047
0.23504688102356
-0.00044608510107953
0.23508596791309
-0.00052676790072078
0.2351312596354
-0.00060757324287605
0.23518288552844
-0.00068860587843654
0.23524101565846
-0.0007700288834367
0.23530585171909
-0.00085193960987407
0.23537763177376
-0.00093449212757862
0.23545659731944
-0.0010176323319923
0.23554301802894
-0.0011014870760326
0.23563714342062
-0.0011858304170675
0.23573927853416
-0.0012709576325232
0.23584968036642
-0.0013563980827016
0.23596872251588
-0.0014428573647016
0.236096649801
-0.0015292569608329
0.23623394092106
-0.0016171837320145
0.23638074768093
-0.0017041440990862
0.23653771475536
-0.0017937338068521
0.23670472092847
-0.0018802604349341
0.23688274469553
-0.0019719415863408
0.23707104569263
-0.0020558989245187
0.23727138698074
-0.0021509724215923
0.2374817023376
-0.0022281163351498
0.23770559459583
-0.002330385564399
0.23793809967535
-0.0023921959342672
-0.0025110439323667
0.23818696278606
0.22175568344787
-4.3739689149788e-05
0.22176364438083
-0.00012987297074092
0.22177694097527
-0.00021649031261079
0.22179560721882
-0.0003031151878742
0.22181964598049
-0.00038941150365715
0.22184909814639
-0.00047553725274616
0.22188404779936
-0.00056171753963792
0.2219246155613
-0.00064814099092382
0.22197095526603
-0.00073494556946255
0.22202326756009
-0.00082234116394903
0.22208179070157
-0.00091046273800906
0.22214680500582
-0.00099950641865018
0.22221859806161
-0.0010894253748163
0.22229748913793
-0.0011803781395542
0.2223837808826
-0.0012721221491526
0.22247783762042
-0.0013650143579364
0.22257998040713
-0.001458540857188
0.22269065547091
-0.0015535324164355
0.22281018462534
-0.0016487861033849
0.22293913334061
-0.001746132435556
0.22307774047898
-0.0018427512258694
0.22322674790791
-0.0019427412243393
0.22338612458105
-0.0020396370967468
0.22355695277802
-0.0021427697721298
0.22373858029025
-0.0022375264256792
0.22393288308251
-0.002345275202939
0.22413788001938
-0.0024331132612237
0.2243573030788
-0.0025498086133615
0.22458626578671
-0.0026211586322001
-0.0027574481085677
0.22483266997342
0.2093092971593
-4.6104887225257e-05
0.20931620105172
-0.0001367768513672
0.20932774994049
-0.00022803918961169
0.20934398328284
-0.00031934851852045
0.20936490917183
-0.00041033738100762
0.20939057805262
-0.00050120612192685
0.20942108785267
-0.00059222732811124
0.20945657671079
-0.00068362983747236
0.20949722038778
-0.0007755892349003
0.20954324711594
-0.00086836788056387
0.20959492866404
-0.0009621442746165
0.20965258399525
-0.0010571617383767
0.20971654356433
-0.0011533849324854
0.20978717362139
-0.0012510081852474
0.20986482810775
-0.0013497766242428
0.20994992744273
-0.0014501136817424
0.21004285629633
-0.0015514696997179
0.21014413066878
-0.0016548067779401
0.21025415167963
-0.0017588071034264
0.21037356795024
-0.0018655486954997
0.21050271295427
-0.0019718962193853
0.21064241921735
-0.0020824474770797
0.21079276355279
-0.0021899814220069
0.2109549171756
-0.0023049233849655
0.21112835394236
-0.0024109631826384
0.21131502615923
-0.0025319474102578
0.21151311634716
-0.0026312034398032
0.21172639773015
-0.0027630899874037
0.21195022435335
-0.0028449852469616
-0.0029996762108107
0.21219245246441
0.19756143606262
-4.8104411142884e-05
0.19756723324593
-0.00014257402548107
0.1975769509184
-0.00023775685285744
0.19759063283951
-0.0003330304303732
0.19760829115023
-0.00042799568246154
0.19762998399191
-0.00052289895425266
0.19765582066931
-0.00061806399608756
0.19768595378392
-0.0007137629425408
0.19772057758404
-0.00081021302538404
0.19775994381574
-0.00090773410251278
0.19780435344565
-0.0010065538947017
0.19785415921955
-0.001106967502338
0.19790972996024
-0.0012089556631942
0.19797147353082
-0.0013127517457931
0.19803979160794
-0.0014180946913173
0.19811515627042
-0.0015254783341907
0.19819801317489
-0.0016343265941917
0.19828894264833
-0.0017457362414541
0.1983884255042
-0.0018582899494616
0.19849718676911
-0.0019743099506998
0.19861566054262
-0.0020903699833295
0.19874475957181
-0.0022115464968765
0.19888468609208
-0.002329907933063
0.19903667994142
-0.002456917225332
0.19920038159152
-0.0025746648239569
0.19937777454015
-0.0027093403503835
0.1995672921637
-0.0028207210550715
0.1997726448421
-0.0029684426579595
0.19998961086802
-0.0030619512655051
-0.0032358320253272
0.20022576669021
0.18647290062075
-4.9727654955747e-05
0.1864775613991
-0.00014723479642766
0.18648539726663
-0.00024559271291115
0.18649645490237
-0.00034408805853498
0.18651074903173
-0.00044228980415527
0.18652834331024
-0.00054049322495654
0.18654935549865
-0.00063907617653449
0.18657394903086
-0.00073835646660927
0.18660233249294
-0.00083859647915055
0.18663477617953
-0.0009401777805834
0.18667160490775
-0.0010433826142317
0.18671319909134
-0.0011485616770477
0.18675996009447
-0.0012557166573167
0.18681233082083
-0.0013651224630057
0.18687075507014
-0.0014765189313913
0.18693574944489
-0.001590472699656
0.18700781704812
-0.0017063941881239
0.18708759454732
-0.0018255137314
0.18717564068757
-0.0019463360805325
0.18727274714201
-0.0020714163961003
0.18737945273937
-0.0021970755717889
0.18749673618074
-0.0023288299295779
0.18762494156168
-0.0024581133055377
0.18776535207152
-0.0025973277270056
0.18791781659028
-0.0027271293347809
0.18808429704229
-0.0028758207947979
0.18826357064713
-0.0029999946525636
0.18845916758628
-0.0031640395902156
0.18866748910243
-0.0032702727751793
-0.0034639141880147
0.18889557127182
0.17600669218163
-5.0971070874532e-05
0.17601020812175
-0.00015075073038937
0.17601614651414
-0.00025153109900739
0.17602455543446
-0.00035249697244308
0.17603545068042
-0.00045318504358586
0.17604889906474
-0.0005539416025805
0.17606502357342
-0.00065520067835413
0.17608399446537
-0.00075732735149213
0.17610602999468
-0.00086063200119566
0.1761314134012
-0.0009655611795992
0.17616048720657
-0.0010724564118766
0.17619365241534
-0.001181726877867
0.17623133602604
-0.0012934002598723
0.1762740081154
-0.0014077945440203
0.17632214778686
-0.0015246585943616
0.17637630745181
-0.0016446323560143
0.17643704126615
-0.0017671279938277
0.17650503280009
-0.001893505256721
0.17658091504202
-0.0020222183139055
0.17666553367489
-0.00215603502057
0.1767595341373
-0.0022910760259702
0.17686394353844
-0.0024332393227642
0.17697926234697
-0.0025734321063724
0.17710678732353
-0.0027248526962174
0.17724661664857
-0.002866958652768
0.17740063200162
-0.0030298361411707
0.17756804987398
-0.0031674125185289
0.17775209336627
-0.0033480830765513
0.17794999419125
-0.0034681735945569
-0.0036818893685208
0.17816796937759
0.16612788903649
-5.1838122350799e-05
0.16613027247477
-0.00015313416318864
0.16613433242929
-0.00025559104792405
0.16614011658334
-0.00035828112078036
0.16614764019452
-0.00046070864895858
0.16615697080024
-0.00056327220237043
0.16616823327512
-0.00066646314720023
0.16618160054595
-0.00077069461611612
0.16619729560306
-0.00087632705195483
0.16621560866103
-0.00098387423100937
0.16623689325196
-0.0010937409960421
0.16626156328701
-0.0012063969059221
0.16629006370388
-0.0013219006695149
0.16632288302255
-0.0014406138552408
0.16636052769774
-0.001562303261914
0.16640357608213
-0.0016876807326444
0.16645262564498
-0.0018161775488298
0.16650839484749
-0.0019492744514082
0.16657158518819
-0.0020854086468471
0.16664308211269
-0.0022275319375099
0.16672363665787
-0.0023716305638061
0.16681430438638
-0.0025239070442859
0.16691575381426
-0.002674881527604
0.16702926267853
-0.0028383615542912
0.1671552162591
-0.0029929122275109
0.16729535275813
-0.0031699726348367
0.16744942097202
-0.0033214807273724
0.16762020550209
-0.0035188676019896
0.1678059774553
-0.0036539455433903
-0.0038877600021284
0.16801184809354
0.15680352945275
-5.2338880380852e-05
0.15680481267724
-0.0001544173824867
0.1568070453382
-0.00025782370363479
0.15681027399794
-0.00036150977526781
0.15681451175753
-0.00046494640332254
0.15681982432964
-0.00056858476927361
0.15682633512243
-0.00067297393482429
0.15683421558076
-0.0007785750692756
0.15684368851119
-0.00088579997718935
0.15685504509963
-0.00099523081416118
0.1568686429743
-0.0011073388653034
0.15688490099797
-0.0012226549239961
0.15690427379349
-0.001341273459232
0.15692725919678
-0.0014635992525037
0.15695438214644
-0.0015894262053501
0.15698623649908
-0.0017195350788974
0.15702345376109
-0.0018533948043712
0.15706677487046
-0.00199259555433
0.15711696098102
-0.0021355947510372
0.15717492188929
-0.0022854928396635
0.1572415100629
-0.0024382187316
0.15731778857688
-0.0026001855528932
0.15740460100158
-0.0027616939473969
0.15750317362468
-0.0029369341730742
0.15761421128041
-0.0031039498794186
0.15773924517183
-0.0032950065230013
0.15787864035818
-0.0034608759108446
0.15803460964583
-0.0036748368871617
0.1582066650623
-0.0038260009574644
-0.0040796254282707
0.15839853049111
0.14800250127945
-5.2489225001823e-05
0.14800273475124
-0.00015465084892113
0.14800322092916
-0.00025830987628868
0.14800400367931
-0.0003622925203847
0.14800509329352
-0.00046603601281404
0.14800655164063
-0.00057004311197542
0.14800849751688
-0.00067491980699585
0.14801109681193
-0.00078117436051887
0.14801456732374
-0.00088927048543689
0.14801919536738
-0.00099985885436151
0.14802533589673
-0.0011134793912504
0.14803340501888
-0.0012307240426705
0.14804385863152
-0.0013517270682516
0.14805719485491
-0.0014769354720871
0.14807394740611
-0.0016061787525451
0.14809471535885
-0.0017403030274715
0.14812015320621
-0.0018788326474723
0.14815101260206
-0.0020234549459404
0.14818810234305
-0.0021726844879162
0.14823234277363
-0.0023297332664358
0.1482846767282
-0.0024905526827627
0.14834615786079
-0.0026616666826586
0.14841780101372
-0.0028333370981259
0.14850075477855
-0.0030198879364696
0.14859606386537
-0.0031992589654949
0.14870500079732
-0.0034039434549293
0.14882861613656
-0.0035844912505446
0.14896841996205
-0.0038146407134854
0.14912534331834
-0.0039829243144664
-0.0042557294772352
0.14930144736692
0.1396954379024
-5.230986173665e-05
0.13969468488987
-0.00015389782989963
0.13969352910205
-0.00025715408221657
0.13969201031497
-0.00036077372769371
0.13969013440637
-0.00046416009940102
0.13968795741211
-0.00056786611371048
0.13968559098587
-0.00067255337755721
0.1396831919373
-0.00077877530945934
0.13968096854149
-0.00088704708776487
0.13967919651394
-0.00099808682538844
0.13967822156072
-0.0011125044368831
0.13967844979507
-0.0012309522759678
0.13968033040394
-0.0013536076760297
0.13968435340276
-0.0014809584696785
0.13969105118036
-0.0016128765287541
0.13970101857
-0.0017502704155508
0.13971492005372
-0.0018927341295425
0.13973350843925
-0.0020420433298656
0.13975762303158
-0.0021967990788109
0.13978818709524
-0.0023602973290292
0.13982621171045
-0.0025285772974309
0.13987273735647
-0.0027081923288849
0.13992892327403
-0.0028895230167236
0.13999583731761
-0.003086801982098
0.14007484183877
-0.003278263489641
0.14016694109948
-0.0034960427195966
0.14027390260267
-0.0036914527583327
0.14039645308964
-0.003937191205416
0.14053706808259
-0.0041235393119874
-0.0044145013101942
0.14069583991135
0.13185462031296
-5.1825436500901e-05
0.1318529566128
-0.00015223411971516
0.13185028288933
-0.00025448034887604
0.13184663403707
-0.00035712486667525
0.13184201032258
-0.0004595363776058
0.13183646032754
-0.00056231611286542
0.13183008678623
-0.00066617983190926
0.1318230346197
-0.00077172313987354
0.13181549873998
-0.00087951120608344
0.13180773876244
-0.00099032684669705
0.13180008511983
-0.0011048507936701
0.13179292699213
-0.0012237941479557
0.13178669976987
-0.0013473804535515
0.13178187729871
-0.001476135998239
0.1317789812735
-0.0016099805031194
0.13177859332351
-0.0017498824650128
0.13178137419774
-0.0018955150031579
0.13178807023834
-0.0020487393699171
0.13179952883444
-0.0022082576746118
0.13181667697201
-0.0023774454667728
0.1318405549765
-0.0025524553027813
0.13187221522767
-0.0027398525818786
0.13191289038309
-0.0029301981750643
0.13196363475908
-0.0031375463623246
0.13202599492372
-0.0033406236598098
0.13210081689796
-0.0035708647006715
0.13219042627786
-0.0037810621459637
0.1322949341312
-0.0040416990669029
0.13241833986826
-0.0042469450565829
-0.0045546667370293
0.13255850528813
0.12445388280448
-5.106188677033e-05
0.12445139019474
-0.00014974149171034
0.12444733566842
-0.0002504258037607
0.12444174836176
-0.00035153754254245
0.12443462131115
-0.00045240931161513
0.1244259937204
-0.00055368850897968
0.12441595811522
-0.00065614421575409
0.12440464582164
-0.00076041083719329
0.12439223532182
-0.00086710069872211
0.12437896456772
-0.00097705608622641
0.12436514383198
-0.0010910300523765
0.12435113895138
-0.0012097892622639
0.12433736631041
-0.0013336078077199
0.12432427484816
-0.0014630445311546
0.12431236925387
-0.0015980749039368
0.12430220715275
-0.001739720358935
0.12429443598036
-0.0018877438258252
0.12428978416432
-0.0020440875490958
0.12428908756822
-0.0022075610741113
0.1242932759711
-0.002381633865913
0.12430337106853
-0.0025625503973916
0.12432048291079
-0.0027569644225941
0.12434579642732
-0.0029555116915297
0.12438053586561
-0.0031722858022707
0.12442612256818
-0.0033862103657906
0.1244836730798
-0.003628415217468
0.12455531560215
-0.0038527046748025
0.12464138985343
-0.0041277733252848
0.12474659318571
-0.0043521483952712
-0.0046757336900867
0.12486766013347
0.11746852823975
-5.0046320719892e-05
0.1174652900526
-0.00014650327126746
0.11745999793445
-0.0002451336507859
0.11745267418557
-0.00034421376008811
0.11744330439284
-0.00044303948779341
0.1174319167501
-0.00054230083793764
0.11741859081355
-0.00064281825358985
0.11740344307136
-0.00074526307170165
0.1173866340568
-0.0008502916627597
0.11736837521304
-0.00095879722247616
0.11734895313966
-0.0010716079599974
0.11732870400094
-0.0011895401051532
0.11730802151078
-0.0013129252995255
0.11728731984341
-0.0014423428459084
0.11726708537722
-0.0015778404199249
0.11724783621474
-0.0017204711787217
0.11723020843586
-0.001870116029366
0.1172148870296
-0.0020287661256215
0.11720270173993
-0.0021953757678445
0.11719455152536
-0.0023734836357375
0.11719143332504
-0.0025594321827726
0.117194505622
-0.0027600367070212
0.11720481616871
-0.0029658222276796
0.11722393818882
-0.003191407814111
0.11725276846045
-0.0034150406314691
0.11729358954382
-0.0036692362973004
0.11734675951994
-0.0039058746492979
0.11741513293285
-0.0041961467376192
0.11749964660762
-0.0044366620689564
-0.0047791614836951
0.11760307440462
0.11087525093947
-4.8812316612597e-05
0.11087135641087
-0.00014260868862596
0.11086497341483
-0.00023875059840368
0.11085611515874
-0.00033535544888244
0.11084476566558
-0.00043168994223245
0.11083094528705
-0.00052848041008973
0.11081471664002
-0.00062658956015543
0.11079617471896
-0.00072672110671885
0.1107754585189
-0.00082957542075147
0.11075275221805
-0.00093609088113538
0.11072831975972
-0.0010471754622074
0.11070246341124
-0.0011636837178868
0.11067555057514
-0.0012860124250959
0.1106479525996
-0.0014147448323073
0.11062013798481
-0.0015500257673165
0.11059256721771
-0.0016929003740645
0.1105658754696
-0.0018434242441324
0.11054066199026
-0.0020035526098004
0.11051779376793
-0.0021725075100713
0.11049804526537
-0.0023537350992063
0.1104825005255
-0.0025438874109247
0.11047217365266
-0.0027497098046085
0.11046817531576
-0.002961823863967
0.11047214674182
-0.0031953792163061
0.1104845435126
-0.0034274373815041
0.1105091673003
-0.003693860067448
0.11054358886854
-0.0039402962028042
0.11059729816956
-0.0042498560256466
0.11065699527764
-0.004496359163934
-0.004868238358348
0.11074607216926
0.10465205939796
-4.740568016555e-05
0.10464762099237
-0.00013817020693936
0.10464030229309
-0.00023143182160968
0.10463011214486
-0.00032516522465921
0.10461703741909
-0.00041861514324851
0.1046010997888
-0.0005125427095984
0.10458235872663
-0.00060784843056571
0.1045608725087
-0.00070523482363406
0.10453674190787
-0.00080544475654043
0.10451012955661
-0.00090947846775656
0.10448127692536
-0.0010183227697571
0.1044504502127
-0.0011328569446533
0.10441799028164
-0.0012535524339447
0.10438422851833
-0.0013809830093171
0.10434961326714
-0.0015154104568406
0.10431453862253
-0.0016578256706992
0.10427964163685
-0.0018085272004079
0.10424540002906
-0.0019693109451015
0.10421275964167
-0.0021398670673422
0.10418225072287
-0.0023232261273767
0.10415524156756
-0.0025168782054572
0.10413220884818
-0.0027266770385768
0.10411501196481
-0.0029446269376487
0.10410415157015
-0.0031845187826212
0.10410148906155
-0.0034247748379061
0.10410907654159
-0.0037014475167819
0.10412569465132
-0.0039569142856457
0.1041646026545
-0.0042887640045302
0.10420379546269
-0.0045355519481303
-0.0049445969547688
0.10428015408936
0.098778163587133
-4.5850916174994e-05
0.098773316022631
-0.00013332255206884
0.098765208554653
-0.00022332426282038
0.098753906454469
-0.00031386303537739
0.098739369023564
-0.0004040776257245
0.098721605079979
-0.00049477868192555
0.098700738771241
-0.00058698203990813
0.098676766280511
-0.00068126225263417
0.098649708278334
-0.00077838667524031
0.098619750211663
-0.00087952032270637
0.098587090196966
-0.00098566267716767
0.098551948037518
-0.0010977147076358
0.098514634372909
-0.0012162386920634
0.098475452366858
-0.0013418009262816
0.098434820482872
-0.0014747784963025
0.098393077130792
-0.001616082242653
0.098350835758063
-0.0017662857527113
0.098308478479164
-0.0019269535927439
0.09826698571067
-0.0020983742277714
0.098226651386437
-0.0022828917353521
0.098189121970632
-0.0024793487261546
0.098154195015701
-0.0026917500250225
0.098124874480585
-0.0029153063491237
0.098099463285802
-0.003159107539672
0.098083817639373
-0.0034091291487163
0.098072556533882
-0.0036901863741891
0.098076384099583
-0.0039607418193601
0.098084148885897
-0.0042965287618032
0.098108980477561
-0.0045603835098702
0.09820775450288
-0.0050433709428292
0.39475333641929
0.0046380929567721
0.39027483411271
0.0044785023315779
0.38596039622284
0.0043144379150002
0.38181438489733
0.0041460113510153
0.37784102439564
0.0039733605277093
0.37404440158895
0.0037966228332975
0.37042845621338
0.0036159454027601
0.36699696956076
0.0034314866803932
0.3637535562302
0.0032434133588685
0.36070165903927
0.0030518972197383
0.35784454567849
0.0028571133900041
0.35518530545017
0.0026592402579013
0.35272684579322
0.0024584596868141
0.35047188839967
0.0022549574236064
0.34842296542312
0.0020489230067139
0.3465824157152
0.0018405497381206
0.3449523813076
0.0016300344377104
0.34353480400782
0.0014175773297596
0.34233142207606
0.0012033819614906
0.34134376689292
0.00098765521257112
0.34057315893423
0.00077060798774189
0.34002070234534
0.00055245661752522
0.33968727230427
0.00033343006924545
0.33957345552931
0.00011381680265499
0.33967983835495
-0.0001063827984588
0.34000674927421
-0.00032691089256656
0.34055409720135
-0.00054734790094946
0.34132165986851
-0.00076756264143897
0.34230899685535
-0.00098733696158022
0.34351543905767
-0.0012064421775011