/*--------------------------------*- C++ -*----------------------------------*\
| =========                 |                                                 |
| \\      /  F ield         | OpenFOAM: The Open Source CFD Toolbox           |
|  \\    /   O peration     | Version:  2112                                  |
|   \\  /    A nd           | Website:  www.openfoam.com                      |
|    \\/     M anipulation  |                                                 |
\*---------------------------------------------------------------------------*/
FoamFile
{
    version     2.0;
    format      ascii;
    arch        "LSB;label=32;scalar=64";
    class       surfaceScalarField;
    location    "17.9";
    object      phi;
}
// * * * * * * * * * * * * * * * * * * * * * * * * * * * * * * * * * * * * * //

dimensions      [0 3 -1 0 0 0 0];

oriented        oriented;

internalField   nonuniform List<scalar> 
43645
(
0.39512387236993
-4.999338309461e-06
0.39513887743114
-1.5005100010991e-05
0.3951638620587
-2.4984669527216e-05
0.39519883995031
-3.4977934929492e-05
0.39524380883918
-4.4968932328176e-05
0.39529875203469
-5.4943238438102e-05
0.39536364184909
-6.4889856423851e-05
0.39543844313913
-7.4801330984841e-05
0.39552311563866
-8.4672539298374e-05
0.39561762128498
-9.4505684893212e-05
0.39572191930435
-0.00010429805671179
0.39583596731101
-0.00011404804280957
0.39595970307154
-0.00012373579547336
0.39609305528063
-0.00013335224290176
0.39623591806703
-0.00014286281911466
0.39638818986378
-0.00015227182848282
0.39654971987619
-0.00016153004319913
0.39672039534508
-0.00017067549888363
0.39690001282357
-0.00017961750777413
0.39708847487775
-0.00018846208289952
0.39728549182357
-0.00019701697408127
0.39749103427089
-0.00020554247527703
0.39770464762934
-0.00021361338621968
0.39792649233424
-0.00022184473262073
0.39815576854917
-0.00022927624270832
0.39839310268396
-0.00023733416279056
0.39863693337307
-0.00024383071738961
0.39888897746535
-0.00025204412061392
0.3991459587429
-0.00025698130577026
-0.00026609565130301
0.39941205436513
0.37294720209758
-9.6467553129236e-06
0.37296121850085
-2.9021568715711e-05
0.37298476262324
-4.8528858533074e-05
0.37301784067136
-6.805604952893e-05
0.37306044528012
-8.7573606640991e-05
0.37311256157937
-0.0001070596019662
0.37317416601163
-0.00012649435145598
0.37324522760024
-0.00014586298083362
0.37332571081332
-0.00016515581198606
0.37341558411327
-0.00018437904286043
0.3735148157431
-0.00020352974291293
0.37362337432417
-0.00022260667867746
0.3737412101428
-0.00024157166731206
0.37386826493096
-0.00026040708280325
0.37400444673513
-0.00027904467359086
0.37414966784591
-0.00029749298829335
0.37430379284985
-0.00031565509498387
0.37446672367183
-0.00033360636769497
0.37463827439824
-0.00035116828013224
0.37481836238133
-0.0003685501112475
0.37500671852021
-0.00038537315766913
0.37520332642924
-0.00040215042866792
0.3754077578884
-0.00041804488952337
0.37562018101206
-0.00043426790042399
0.37583983579001
-0.00044893106489477
0.37606734339018
-0.0004648418075012
0.37630121506451
-0.00047770243665183
0.3765431317567
-0.00049396085765944
0.37678996922328
-0.00050381881623834
-0.00052194871284171
0.37704582223922
0.35201543059154
-1.4179884674367e-05
0.3520290672865
-4.2658330407459e-05
0.35205184733788
-7.1308976839325e-05
0.35208379058902
-9.9999366745641e-05
0.35212489812858
-0.00012868121082878
0.35217515640849
-0.00015731794483357
0.35223454038389
-0.00018587838798286
0.35230301821194
-0.0002143408681729
0.35238055649734
-0.0002426941547599
0.35246713051287
-0.00027095311389995
0.35256271975526
-0.00029911903891544
0.35266730788807
-0.00032719486328671
0.35278086195427
-0.00035512578351843
0.3529033420672
-0.00038288724411184
0.35303467432762
-0.00041037698082206
0.3531747909439
-0.00043760965004395
0.35332357509033
-0.0004644392856353
0.35348095108258
-0.00049098240319244
0.35364675159012
-0.00051696883007033
0.35382091996271
-0.00054271852567235
0.35400320316462
-0.00056765640098968
0.35419361652774
-0.00059256383306959
0.35439174030631
-0.00061616870937042
0.35459778586451
-0.00064031350017847
0.35481098324313
-0.00066212848546539
0.35503202096136
-0.00068587956832166
0.35525935554004
-0.00070503705864598
0.35549478474375
-0.00072939010499591
0.35573502319063
-0.00074405730600213
-0.00077129308525652
0.35598436751798
0.33225844490324
-1.8580884739666e-05
0.33227169127454
-5.5904762092377e-05
0.33229379195203
-9.3409714906639e-05
0.33232475884057
-0.00013096631514731
0.33236459214553
-0.00016851457440799
0.33241327893311
-0.00020600478961543
0.33247079330862
-0.00024339281910678
0.3325371022523
-0.00028064986589028
0.33261217404108
-0.00031776599591067
0.33269599156589
-0.00035477068945525
0.33278854796278
-0.00039167548487306
0.33288984575406
-0.00042849270205397
0.33299987300477
-0.00046515308011977
0.33311861294599
-0.00050162722979546
0.33324601399752
-0.00053777807541303
0.33338203322626
-0.00057362892064713
0.33352657640539
-0.00060898250552956
0.33367959589908
-0.00064400193675096
0.33384094646653
-0.00067831943663627
0.33401060441233
-0.00071237651006242
0.33418833462856
-0.00074538665540084
0.3343741935251
-0.00077842276763416
0.33456776779161
-0.0008097430138596
0.33476932699379
-0.00084187274051815
0.33497808149788
-0.00087088302800493
0.33519481673354
-0.00090261484292039
0.33541791183112
-0.00092813219571121
0.33564935023481
-0.00096082854829237
0.33588564358264
-0.00098035069258723
-0.0010171289537965
0.33613147941042
0.31361032949685
-2.2853051606165e-05
0.3136231976624
-6.8772980499521e-05
0.31364464972983
-0.00011486183507925
0.31367469524841
-0.00016101188560507
0.31371333380354
-0.00020715318010697
0.31376055199019
-0.00025322302538992
0.31381632235234
-0.0002991632287944
0.3138806105887
-0.00034493814820935
0.31395338732615
-0.00039054277767455
0.31403464497091
-0.00043602837694071
0.31412439346537
-0.00048142402042824
0.31422265846314
-0.00052675773940385
0.31432945377782
-0.00057194843288075
0.31444479082288
-0.00061696431159745
0.3145686451798
-0.00066163246780873
0.31470100401357
-0.00070598778883323
0.31484180052238
-0.00074977904779549
0.31499102095131
-0.00079322239841846
0.31514854697072
-0.00083584548819646
0.31531439467485
-0.00087822424598795
0.31548835111701
-0.0009193431291409
0.31567052232765
-0.00096059400987635
0.31586050400869
-0.00099972472664721
0.31605863620859
-0.0010400049725362
0.31626410830076
-0.0010763551527594
0.31647782256893
-0.0011163291443453
0.3166980687803
-0.0011483784410568
0.31692704915328
-0.0011898089555933
0.31716102946948
-0.001214331042564
-0.0012612430703499
0.31740514355011
0.29600883932718
-2.6990563947645e-05
0.29602131325506
-8.1246955959682e-05
0.29604208888577
-0.00013563751319803
0.29607117600302
-0.00019009904948446
0.29610857536234
-0.00024455258493567
0.29615427387672
-0.00029892158407883
0.29620824286051
-0.00035313225555224
0.29627044726819
-0.00040714259756029
0.29634086134631
-0.00046095689607234
0.2964194893257
-0.00051465639527909
0.29650636125715
-0.00056829598943855
0.29660152999698
-0.00062192651551269
0.29670503958668
-0.00067545805755347
0.29681693436341
-0.00072885912216577
0.29693722189019
-0.00078192002729639
0.29706592450745
-0.00083469043788103
0.29720300800006
-0.00088686257132334
0.29734849812382
-0.00093871255243442
0.29750230905171
-0.00098965644576786
0.29766450295678
-0.0010404181803753
0.29783489484732
-0.0010897350487174
0.29801364736392
-0.0011393465554352
0.29820037068475
-0.0011864480764274
0.29839548317731
-0.0012351174942308
0.29859815711674
-0.0012790291215756
0.29880942084674
-0.0013275929041241
0.29902747443097
-0.0013664320554919
0.29925475139168
-0.0014170859465839
0.29948726255494
-0.0014468422354081
-0.00150458719746
0.29973060665063
0.279395220471
-3.0976552829917e-05
0.279407249569
-9.327609373014e-05
0.2794272664689
-0.00015565445256868
0.27945528260199
-0.00021811522129824
0.27949130105652
-0.00028057107714617
0.27953531003497
-0.00034293059914079
0.2795872804268
-0.00040510268278868
0.27964717731078
-0.00046703951580907
0.27971497990125
-0.00052875951956586
0.27979070636428
-0.00059038289017217
0.27987440979997
-0.00065199945576791
0.27996617382856
-0.0007136905736463
0.28006607675913
-0.00077536101653408
0.28017420011511
-0.00083698250558921
0.28029058805035
-0.00089830798904115
0.28041530280352
-0.00095940521677097
0.2805483480168
-0.001019907809621
0.28068979421158
-0.0010801587717092
0.28083959418472
-0.0011394564429454
0.28099786182379
-0.0011986858432353
0.28116444717016
-0.0012563204187066
0.28133957502497
-0.0013144744338639
0.28152287831647
-0.0013697513916309
0.28171485844663
-0.0014270976483237
0.28191468084413
-0.001478851543316
0.2821235023822
-0.0015364144668624
0.28233944731517
-0.0015823770136015
0.28256517847426
-0.0016428171309534
0.28279647280626
-0.0016781365922053
-0.0017474997841412
0.28303938536637
0.26371401927947
-3.4786414968776e-05
0.2637255265822
-0.00010478343068435
0.26374466322326
-0.00017479112758661
0.26377144221732
-0.00024489424873455
0.26380586950202
-0.00031499839441622
0.26384793534923
-0.00038499647811779
0.26389761106103
-0.00045477842544462
0.26395486276491
-0.00052429124970074
0.26401967593882
-0.00059357272252643
0.26409208448998
-0.00066279146951302
0.26417216699072
-0.00073208198374202
0.26426004067838
-0.0008015642876833
0.26435582151328
-0.00087114187691228
0.2644596317684
-0.00094079278541838
0.26457155636554
-0.0010102326100993
0.26469170158559
-0.001079550460098
0.26482011407609
-0.0011483203227881
0.26495691379181
-0.0012169585096056
0.26510209860394
-0.001284641276832
0.26525583898338
-0.0013524262441244
0.26541802826286
-0.0014185097193933
0.26558895765587
-0.0014854038479468
0.26576829398653
-0.0015490877432961
0.26595662355951
-0.0016154272423303
0.26615312121809
-0.0016753492229812
0.26635906834791
-0.0017423616179245
0.26657253956509
-0.0017958482521878
0.26679640962992
-0.0018666872170669
0.26702626705862
-0.0019079940415805
-0.0019898115440289
0.26726857879645
0.24891289771855
-3.8391469888133e-05
0.24892379172923
-0.00011567746894851
0.2489419037589
-0.00019290318458039
0.24896724768643
-0.00027023820311631
0.24899983251237
-0.00034758324657894
0.24903965105082
-0.00042481504217096
0.24908667561512
-0.00050180301464974
0.24914087416367
-0.00057848982251955
0.24920223953133
-0.0006549381137375
0.24927082271876
-0.00073137467983854
0.24934672957624
-0.00080798886339956
0.24943011299888
-0.00088494773186621
0.24952112915228
-0.00096215805117658
0.24961994368769
-0.0010396073411151
0.24972668576856
-0.0011169747106671
0.24984150900034
-0.0011943737111033
0.24996450778139
-0.0012713191225778
0.25009585530286
-0.0013483060494757
0.25023560101048
-0.0014243870025159
0.25038397577808
-0.001500801029578
0.25054092538834
-0.0015754593473238
0.25070681008515
-0.0016512885623357
0.25088134418637
-0.0017236218620446
0.25106519765131
-0.001799280724824
0.25125757654253
-0.0018677281318158
0.25145987573977
-0.001944660832895
0.25167015784376
-0.0020061303740272
0.25189147681991
-0.0020880062109402
0.25211930218531
-0.002135819424185
-0.0022309447494599
0.25236043537231
0.23494245665732
-4.1760588959792e-05
0.23495264400219
-0.00012586483655179
0.23496957947416
-0.00020983867909301
0.23499327824163
-0.00029393699282211
0.23502375256968
-0.00037805759644659
0.23506099806555
-0.00046206055947204
0.23510498855088
-0.00054579352097699
0.23515569452508
-0.00062919581732351
0.23521311707759
-0.00071236068639068
0.23527732513991
-0.00079558276190462
0.2353484528045
-0.0008791165472592
0.23542668950356
-0.00096318444979261
0.2355122330646
-0.0010477016306206
0.23560529398383
-0.0011326682783518
0.23570604817264
-0.0012177289170567
0.23581469868695
-0.0013030242426327
0.23593139167986
-0.0013880121323458
0.23605635619339
-0.0014732705795728
0.23618969943263
-0.0015577302580302
0.23633171514409
-0.0016428167570823
0.23648241119648
-0.0017261554155371
0.23664221763335
-0.0018110950148742
0.23681091188887
-0.001892316133074
0.23698924299199
-0.0019776118433504
0.23717647486796
-0.0020549600230926
0.23737409828288
-0.0021422842630401
0.23758021217248
-0.0022122442787843
0.23779800293065
-0.0023057969839519
0.23802291311019
-0.0023607296179994
-0.0024700030437029
0.23826197138927
0.2217560727701
-4.4863586167179e-05
0.22176546347739
-0.00013525556172778
0.22178107425182
-0.00022544947128624
0.22180292198109
-0.00031578473966684
0.22183102241901
-0.00040615805169308
0.22186537413292
-0.0004964122905013
0.22190595265323
-0.00058637205815993
0.2219527311869
-0.00067597436768251
0.22200571934119
-0.00076534885712413
0.22206500416255
-0.00085486759952205
0.22213074815177
-0.00094486055247462
0.22220317704809
-0.0010356133618931
0.22228253049013
-0.0011270550881831
0.22236906380335
-0.0012192016068814
0.22246300091738
-0.0013116660461238
0.22256459505848
-0.0014046183985593
0.22267404708583
-0.0014974641742797
0.222791643026
-0.0015908665341408
0.22291755331973
-0.0016836405659351
0.22305213540946
-0.0017773988608128
0.223195468918
-0.0018694889379073
0.22334805234819
-0.0019636784587457
0.2235097432892
-0.0020540070876222
0.22368136202876
-0.0021492305963037
0.22386226125479
-0.0022358592624033
0.22405400372535
-0.0023340267467424
0.22425478268635
-0.0024130232528058
0.22446785732181
-0.0025188716320832
0.22468875576018
-0.0025816280685021
-0.0027058467906582
0.22492459949427
0.20930974161868
-4.7673268482048e-05
0.20931825418948
-0.0001437681468151
0.20933240568776
-0.0002396009838064
0.20935221492105
-0.00033559398714585
0.20937770108048
-0.00043164422520517
0.20940886554466
-0.00052757676873744
0.20944568547655
-0.0006231920040412
0.20948813667617
-0.0007184255812902
0.20953623696458
-0.00081344915947788
0.20959009054371
-0.00090872119258451
0.20964988714894
-0.0010046571715607
0.20971588742584
-0.0011016136526299
0.20978837180181
-0.0011995394778847
0.2098676389653
-0.0012984687840365
0.20995396062166
-0.0013979877160105
0.21004763924655
-0.0014982970368805
0.21014893202287
-0.0015987569638793
0.21025818137978
-0.0017001159041925
0.21037562538411
-0.0018010845832238
0.21050168410772
-0.0019034575972134
0.21063651812005
-0.0020043229628496
0.21078069080817
-0.0021078511592854
0.21093415779399
-0.0022074740856588
0.21109779948494
-0.0023128722992558
0.21127109148321
-0.0024091512724743
0.21145563891749
-0.0025185741925741
0.21164979561425
-0.0026071799609025
0.21185682222976
-0.0027258982584882
0.21207246337495
-0.0027972692240336
-0.0029371576176403
0.21230377419104
0.19756193016739
-5.0166916514531e-05
0.19756949638876
-0.00015133437940439
0.19758207581895
-0.00025218042524207
0.19759968902794
-0.00035320720742062
0.19762235825221
-0.0004543134607698
0.19765008721859
-0.00055530574650898
0.1976828543145
-0.00065595911141114
0.19772063738832
-0.00075620866670808
0.19776346160544
-0.00085627338829815
0.19781144664218
-0.00095670624115637
0.19786480721205
-0.0010580177533455
0.19792383573397
-0.001160642186582
0.19798885082302
-0.0012645545790024
0.19806019174465
-0.0013698097178083
0.19813817635277
-0.0014759723362517
0.1982231536945
-0.0015832743907374
0.1983154372775
-0.0016910405589314
0.19841542347132
-0.0018001021099825
0.19852342092464
-0.0019090820483989
0.19863990919259
-0.0020199458768609
0.19876513799083
-0.0021295517726155
0.19889972959027
-0.0022424427700341
0.19904375555043
-0.0023515000569168
0.19919814214279
-0.0024672589024575
0.19936252432209
-0.0025735334623749
0.19953851461247
-0.0026945644932514
0.19972470030454
-0.0027933656630101
0.19992426199261
-0.0029254599561317
0.20013330735527
-0.0030063145957605
-0.0031624945993611
0.20035864432749
0.18647343794612
-5.2327501165145e-05
0.18648000641933
-0.00015790286167396
0.18649092856044
-0.00026310257550559
0.18650622634554
-0.00036850500179723
0.18652592438789
-0.00047401151248953
0.18655002796447
-0.00057940933264537
0.18657851593749
-0.00068444709414757
0.18661136725363
-0.00078905999279586
0.18664861299283
-0.00089351913764727
0.18669038581797
-0.00099847907668768
0.1867369221584
-0.0011045541043563
0.18678854198968
-0.0012122620286643
0.1868455979828
-0.0013216105830788
0.18690846526287
-0.0014326770089967
0.18697750479301
-0.0015450118775989
0.18705310799983
-0.0016588776088414
0.18713564303822
-0.0017735756085866
0.18722555574993
-0.0018900148329175
0.18732322658739
-0.0020067528969851
0.18742918928246
-0.002125908582886
0.18754378938217
-0.0022441518830933
0.1876676995821
-0.0023663529804521
0.18780112451413
-0.0024849249991783
0.18794501890778
-0.0026111533059901
0.18809921447406
-0.0027277290382339
0.18826529166951
-0.0028606416978999
0.18844214893091
-0.0029702229332998
0.18863279647981
-0.0031161075134199
0.18883386436116
-0.0032073824850409
-0.0033803439944545
0.18905171374797
0.17600726560021
-5.4144348393766e-05
0.17601280391553
-0.00016344118454102
0.17602201482026
-0.00027231348792954
0.1760349210576
-0.0003814112469858
0.17605154869072
-0.00049063915360041
0.17607190353407
-0.00059976418419707
0.17609596392078
-0.0007085074892583
0.17612370860745
-0.00081680468812945
0.17615517266251
-0.00092498320161051
0.17619049856296
-0.0010338049863294
0.17622994029078
-0.0011439958416257
0.17627384008324
-0.0012561618308711
0.17632257938559
-0.0013703498953975
0.17637656321343
-0.0014866608470524
0.17643619066304
-0.0016046393375839
0.1765018897148
-0.0017245766711071
0.17657407995642
-0.0018457658607575
0.17665325042962
-0.0019691853166535
0.17673985258434
-0.0020933550621434
0.17683446690794
-0.0022205229167462
0.17693753950563
-0.0023472244908036
0.17704978265389
-0.0024785961383903
0.17717154950175
-0.0026066918563942
0.17730380295888
-0.0027434067720147
0.17744660836878
-0.0028705344566618
0.17760147065291
-0.0030155039900726
0.17776767981307
-0.0031364321011627
0.17794797871684
-0.0032964064243678
0.178139688288
-0.0033990920629783
-0.0035891638549087
0.17834850814133
0.16612849106548
-5.5613440005958e-05
0.16613298658079
-0.00016793670650766
0.16614046486627
-0.00027979178021735
0.16615094871226
-0.00039189509993562
0.16616446454143
-0.00050415498984167
0.16618101747994
-0.00061631712995212
0.16620058411371
-0.00072807413042371
0.16622314149092
-0.00083936207295869
0.16624872637702
-0.00095056809552612
0.16627748738997
-0.0010625660073603
0.16630969117439
-0.0011761996343875
0.16634569612058
-0.0012921667857134
0.16638590612174
-0.0014105599054851
0.16643074909077
-0.0015315038252908
0.16648065607851
-0.0016545463347537
0.16653608420038
-0.0017800048025701
0.16659749925308
-0.0019071809231463
0.16666542584192
-0.0020371119151687
0.16674038345318
-0.0021683126829708
0.16682299002158
-0.0023031294944825
0.1669137943823
-0.0024380288605623
0.16701353563836
-0.0025783374030456
0.16712272845754
-0.0027158846836981
0.16724232132735
-0.0028629996493667
0.1673726477233
-0.0030008608596447
0.167515090166
-0.0031579464391985
0.16766941050252
-0.0032907524436626
0.1678379825405
-0.003464978467799
0.16801899255133
-0.0035801020789481
-0.0037874251229439
0.16821725381389
0.15680415248856
-5.6737244251532e-05
0.15680761201333
-0.0001713962374833
0.15681336841054
-0.00028554818370584
0.15682144360575
-0.00039997030145918
0.15683186325923
-0.00051457464962448
0.1568446305915
-0.00062908446855066
0.15685971912698
-0.0007431626722097
0.15687710255724
-0.00085674550958955
0.1568968168049
-0.00097028234962301
0.15691901265648
-0.0010847618655193
0.15694396398795
-0.001201150972616
0.15697203872875
-0.0013202415335316
0.15700365606522
-0.0014421772492313
0.15703925919328
-0.0015671069609374
0.1570793037031
-0.0016945908523933
0.15712426779611
-0.0018249689036225
0.15717465628069
-0.0019575694158616
0.15723102045896
-0.0020934761015792
0.15729394237892
-0.0022312346109276
0.15736406722796
-0.0023732543512367
0.15744204499148
-0.0025160066313892
0.15752862786456
-0.0026649202828441
0.15762450088367
-0.0028117577088947
0.1577305752942
-0.0029690740651945
0.1578474834222
-0.0031177689922307
0.15797643644539
-0.0032868994661766
0.15811774418096
-0.003432060182446
0.1582733038452
-0.0036205381346651
0.15844235014321
-0.0037491483794263
-0.0039736419262157
0.15862856694373
0.14800313803526
-5.7524355179411e-05
0.1480055865237
-0.00017384473216653
0.14800966164294
-0.00028962330907758
0.14801538362164
-0.00040569228605379
0.14802277624019
-0.00052196727375397
0.14803183952462
-0.00063814775824292
0.14804254265951
-0.00075386581203025
0.14805485442549
-0.00086905728024235
0.14806880731287
-0.0009842352414537
0.14808455024628
-0.0011005048033017
0.1481023585853
-0.0012189593159956
0.14812260302887
-0.0013404859816158
0.14814571026472
-0.0014652844897868
0.14817213100105
-0.0015935277022454
0.14820233674899
-0.0017247966055627
0.14823681872749
-0.0018594508875827
0.14827611146666
-0.0019968621606065
0.14832078458601
-0.0021381492265
0.14837147306586
-0.0022819230961785
0.14842884077076
-0.0024306220611559
0.14849363108231
-0.0025807969474339
0.14856659803786
-0.0027378872421101
0.14864859624651
-0.0028937559204057
0.1487404810409
-0.0030609588613743
0.14884320550051
-0.0032204934526375
0.14895776637172
-0.0034014603370891
0.14908509336728
-0.0035593871769303
0.14922647894018
-0.003761923705847
0.14938240123571
-0.0039050706732354
-0.004146427280403
0.14955518659141
0.13969608170947
-5.79888110947e-05
0.13969756027154
-0.00017532330156417
0.13970002119939
-0.00029208424397204
0.13970348250375
-0.00040915359674885
0.1397079648486
-0.00052644962406465
0.13971346397697
-0.00064364689120211
0.13971994368718
-0.00076034552595085
0.13972736635337
-0.00087647994938819
0.13973575841979
-0.00099262731017353
0.13974526297283
-0.0011100093582076
0.13975615113199
-0.001229847476752
0.13976878987253
-0.0013531247237205
0.13978360540301
-0.0014801000219117
0.13980104849096
-0.001610970792065
0.13982159690388
-0.0017453450205918
0.13984574750023
-0.0018836014862695
0.13987405249984
-0.0020251671626689
0.13990709362198
-0.0021711903510742
0.13994554328497
-0.0023203727613944
0.13999008108887
-0.0024751598668053
0.14004152449216
-0.0026322403517822
0.14010063127479
-0.002796994024803
0.14016840223299
-0.0029615268775136
0.14024563749485
-0.0031381941207316
0.140333597193
-0.003308453146888
0.14043305261643
-0.0035009157551466
0.14054560885566
-0.0036719434096931
0.14067182888243
-0.0038881437253841
0.14081369425328
-0.0040469360370667
-0.0043041908546735
0.14097145783446
0.13185526449191
-5.8148582130754e-05
0.13185582789368
-0.00017588671446438
0.13185676434622
-0.0002930207074341
0.13185808872144
-0.00041047798164626
0.13185981752071
-0.00052817843136534
0.13186194156572
-0.00064577094257878
0.13186441884912
-0.00076282281410042
0.13186720412733
-0.00087926523093682
0.13187031527596
-0.00099573846095104
0.13187388537777
-0.0011135794613152
0.13187817576001
-0.0012341378597145
0.13188354339924
-0.0013584923634138
0.131890406516
-0.0014869631390977
0.13189920885992
-0.0016197731365463
0.13191042482901
-0.0017565609904534
0.1319245502387
-0.0018977268969348
0.13194214107733
-0.0020427580023974
0.13196378734411
-0.0021928366188819
0.13199017627132
-0.002346761689351
0.13202200962789
-0.0025069932235256
0.1320601400123
-0.002670370735447
0.13210536009798
-0.0028422141084638
0.13215874893905
-0.0030149157150623
0.13222111953367
-0.003200564709974
0.13229391531493
-0.0033812489208761
0.13237778719504
-0.0035847876260168
0.1324748846492
-0.0037690408530768
0.13258520831113
-0.0039984673755882
0.13271225776744
-0.0041739854820612
-0.0044459427351941
0.13285400965909
0.12445452135964
-5.8023617592114e-05
0.12445423206688
-0.00017559744202456
0.12445375082674
-0.00029253948821229
0.12445308727844
-0.00040981445277311
0.12445225113566
-0.00052734230563064
0.12445122812161
-0.00064474794304734
0.12444997098195
-0.00076156568654063
0.12444842652556
-0.0008777207845673
0.12444660224152
-0.00099391418522091
0.12444461660367
-0.0011115938305085
0.12444271571878
-0.0012322369810078
0.12444123993092
-0.0013570165812788
0.12444059336091
-0.0014863165746256
0.12444120533485
-0.0016203851160786
0.12444353955598
-0.0017588952173077
0.12444808249624
-0.0019022698430617
0.12445538255192
-0.0020500580639945
0.12446603172069
-0.0022034857934155
0.12448070977437
-0.0023614397483696
0.12450014840899
-0.0025264318626862
0.12452518259466
-0.0026954049244857
0.1245566969894
-0.0028737285049334
0.12459572061176
-0.0030539393371715
0.12464327414418
-0.0032481182397792
0.1247006674822
-0.003438642253787
0.12476886975809
-0.0036529898942098
0.12484980309449
-0.0038499741796762
0.12494380979956
-0.0040924740696432
0.12505498143291
-0.0042851571048798
-0.004571402667222
0.1251804413746
0.11746915581951
-5.7635686103164e-05
0.11746808083424
-0.00017452249418216
0.1174663005262
-0.00029075921932761
0.11746381528114
-0.00040732924546887
0.11746062521779
-0.00052415227721946
0.11745671219466
-0.00064083495170403
0.11745202291151
-0.00075687643216674
0.11744649581526
-0.00087219371450108
0.11744012860314
-0.00098754699719693
0.11743302188889
-0.0011044871388235
0.11742540151187
-0.0012246166255052
0.11741758325619
-0.0013491983464932
0.11740995246594
-0.0014786858049754
0.1174029159685
-0.001613348639143
0.11739692416396
-0.0017529034333022
0.1173924411534
-0.0018977868530406
0.11739000590817
-0.0020476228391995
0.11739019288163
-0.0022036727869599
0.1173936729884
-0.0023649198745593
0.11740118695481
-0.0025339458473692
0.11741353417131
-0.0027077521576664
0.11743170344585
-0.0028918977939575
0.11745656366955
-0.0030787995728306
0.11748954630001
-0.0032811008791666
0.11753141197146
-0.003480507931026
0.11758435019891
-0.0037059281241165
0.11764846873083
-0.0039140927112938
0.11772677465451
-0.0041707799913545
0.11781927467506
-0.0043776571239294
-0.0046824530075035
0.11793032501417
0.11087586454367
-5.7015379237536e-05
0.11087408056759
-0.00017273857932194
0.11087112774771
-0.00028780646332184
0.11086699428003
-0.00040319584028242
0.11086167300079
-0.00051883105740611
0.11085514688644
-0.00063430889329267
0.11084735371401
-0.00074908331240272
0.11083821929151
-0.00086305934190038
0.11082773143859
-0.00097705919199966
0.1108159706994
-0.0010927264457883
0.11080313992358
-0.0012117858947591
0.11078952482576
-0.0013355832930781
0.11077548917139
-0.0014646501945973
0.110761410593
-0.001599270104565
0.1107477263282
-0.0017392192121282
0.11073486196668
-0.0018849225349954
0.11072335513753
-0.0020361160531359
0.11071372661684
-0.0021940443087368
0.11070667352644
-0.002357866825487
0.11070286577285
-0.0025301381334787
0.11070315790042
-0.0027080443225926
0.11070848365331
-0.0028972235813292
0.11071970167649
-0.0030900176270851
0.1107384367047
-0.003299835934745
0.11076491257646
-0.0035069838261683
0.11080294950468
-0.0037439650716
0.1108498651559
-0.0039610083781466
0.11091519554547
-0.0042361103943951
0.11098491888289
-0.0044473804752063
-0.0047820280341076
0.11108449389022
0.10465265489234
-5.6204375150516e-05
0.10465027373572
-0.00017035750939882
0.10464628756723
-0.00028382038315171
0.10464067813043
-0.00039758649007464
0.10463345102591
-0.00051160403634887
0.1046245943988
-0.00062545234624359
0.10461402372736
-0.00073851271791501
0.10460167203817
-0.00085070772713185
0.10458751493602
-0.00096290216236628
0.10457159720196
-0.0010768087828803
0.10455408738573
-0.0011942761487523
0.10453524019534
-0.0013167361722956
0.10451539986769
-0.0014448099361436
0.10449491725021
-0.0015787875559297
0.10447421594288
-0.0017185179733419
0.10445367412116
-0.001864380781337
0.10443383190868
-0.0020162739080602
0.10441512160175
-0.0021753340680562
0.10439831018359
-0.00234105547189
0.10438388592631
-0.002515713938182
0.10437294627623
-0.002697104731237
0.10436600785663
-0.0028902852163234
0.10436453963169
-0.0030885494523623
0.10436924508841
-0.0033045414369233
0.10438149388492
-0.0035192326632753
0.10440360771628
-0.003766078938371
0.10443421626095
-0.0039916169537914
0.10448562807664
-0.0042875222383268
0.10453825441493
-0.0045000068423364
-0.0048707168778347
0.10462694322037
0.098778715754369
-5.5201952530455e-05
0.098775873358198
-0.00016751521645708
0.098770990476377
-0.00027893760506713
0.098764072897769
-0.00039066901326872
0.09875516152848
-0.00050269276606186
0.098744333416096
-0.00061462433002926
0.098731274161829
-0.0007254535574039
0.098716072195151
-0.00083550585241577
0.098698694195586
-0.0009455242535421
0.098679136898528
-0.0010572515758286
0.098657512713387
-0.0011726520531649
0.098634035640608
-0.001293259188833
0.09860902577005
-0.0014198001546791
0.098582807780382
-0.0015525696551745
0.098555784417004
-0.0016914946985143
0.09852829559314
-0.0018368920455301
0.098500868774319
-0.0019888471763069
0.098473855382894
-0.0021483207621635
0.098448065048494
-0.0023152652204305
0.098423789451779
-0.0024914384207789
0.098402406866216
-0.0026757222200833
0.098383832033992
-0.0028717104528974
0.098370614558531
-0.0030753320395788
0.098361426817494
-0.0032953537524302
0.098361343195765
-0.0035191490917669
0.098365719104478
-0.0037704548908359
0.098384146949991
-0.0040100448374472
0.098406379304489
-0.0043097546284231
0.098446439121737
-0.0045400666980484
0.09855820088709
-0.00498247869337
0.39477424581079
0.0046378085247772
0.39029601084802
0.0044782349335594
0.38598186513061
0.0043141456880709
0.38183621158447
0.0041456535163453
0.37786331196183
0.0039728995922669
0.37406728766909
0.0037960242616751
0.37045211238973
0.0036151752476153
0.36702160308164
0.0034305092756485
0.36377941276906
0.0032421902795135
0.36072902579268
0.0030503869427127
0.35787375444871
0.0028552713097988
0.35521673548044
0.0026570189336342
0.3527609257246
0.0024558097208718
0.35050909699189
0.0022518286974361
0.34846383086338
0.0020452660930901
0.34662751373475
0.0018363170930972
0.34500233233671
0.0016251813625396
0.34359026978715
0.0014120625141424
0.34239310202503
0.00119716772692
0.34141239460011
0.00098070738994912
0.34064949876315
0.00076289580235261
0.34010554621538
0.00054395251351451
0.33978143555126
0.00032411063031352
0.33967776368553
0.00010367183233619
0.33979518406483
-0.00011742041221315
0.34013399407674
-0.00033881004440511
0.34069413305418
-0.00056013900945983
0.34147539257952
-0.00078125955696528
0.34247734093124
-0.0010019483828945
0.34369931364727
-0.0012219727468618