/*--------------------------------*- C++ -*----------------------------------*\
| =========                 |                                                 |
| \\      /  F ield         | OpenFOAM: The Open Source CFD Toolbox           |
|  \\    /   O peration     | Version:  2112                                  |
|   \\  /    A nd           | Website:  www.openfoam.com                      |
|    \\/     M anipulation  |                                                 |
\*---------------------------------------------------------------------------*/
FoamFile
{
    version     2.0;
    format      ascii;
    arch        "LSB;label=32;scalar=64";
    class       volVectorField;
    location    "17.9";
    object      U;
}
// * * * * * * * * * * * * * * * * * * * * * * * * * * * * * * * * * * * * * //

dimensions      [0 1 -1 0 0 0 0];

internalField   nonuniform List<vector> 
22000
(
(1.0000010234776 -2.601734309291e-05 0)
(1.0000269997948 -7.8159372859484e-05 0)
(1.0000769285398 -0.00013029300821625 0)
(1.000152003003 -0.00018242174537328 0)
(1.0002527294216 -0.00023448892390932 0)
(1.0003790871584 -0.00028644725230076 0)
(1.000530827541 -0.00033825231065828 0)
(1.0007077114449 -0.00038986860570334 0)
(1.0009095782224 -0.0004412673910671 0)
(1.0011363348711 -0.00049245594431472 0)
(1.001387900299 -0.00054341574712717 0)
(1.0016642009565 -0.00059413625412215 0)
(1.0019651079657 -0.00064451328071382 0)
(1.002290471548 -0.00069450140856882 0)
(1.0026400400522 -0.00074392081373918 0)
(1.0030135791004 -0.00079279693591899 0)
(1.0034107180823 -0.00084087079930538 0)
(1.0038311919055 -0.00088834557645319 0)
(1.0042745020725 -0.00093474112195074 0)
(1.0047404096066 -0.0009806222548077 0)
(1.0052282233336 -0.0010249680726495 0)
(1.0057378250246 -0.0010691663612821 0)
(1.0062681985847 -0.0011109527538281 0)
(1.0068195379094 -0.0011536108089473 0)
(1.0073902418038 -0.0011920139176213 0)
(1.0079811936218 -0.0012337916778302 0)
(1.0085896900613 -0.001267236932221 0)
(1.0092180374266 -0.0013099279125191 0)
(1.0098614215994 -0.0013350760923552 0)
(1.0105250565356 -0.00138300212588 0)
(1.0000004631166 -7.6463603791641e-05 0)
(1.0000262895848 -0.00022989624037416 0)
(1.0000762319182 -0.00038346264024643 0)
(1.0001514301682 -0.00053712322911461 0)
(1.0002524445692 -0.00069066981117794 0)
(1.0003793255701 -0.00084394021467586 0)
(1.0005318621519 -0.00099679181347263 0)
(1.0007098302439 -0.0011491150489434 0)
(1.0009130627381 -0.0013008301862589 0)
(1.0011414777166 -0.0014519711834803 0)
(1.0013949929985 -0.001602498907708 0)
(1.0016735743811 -0.0017523903430495 0)
(1.0019770892883 -0.0019013419181524 0)
(1.0023054550062 -0.0020492124942028 0)
(1.0026583807486 -0.0021954711868425 0)
(1.0030357459624 -0.0023401802457416 0)
(1.003437063508 -0.0024825860811123 0)
(1.0038622909151 -0.0026232660661024 0)
(1.0043106500538 -0.0027608353804913 0)
(1.0047823642724 -0.0028969070471279 0)
(1.0052761099389 -0.0030285494562763 0)
(1.0057927481057 -0.0031597250622703 0)
(1.0063298718521 -0.0032839577014374 0)
(1.0068897635679 -0.0034106103549078 0)
(1.0074678187324 -0.0035250715316506 0)
(1.0080693749949 -0.0036490488456389 0)
(1.0086853106977 -0.0037492818887708 0)
(1.0093274404448 -0.0038756423178552 0)
(1.0099773158907 -0.0039522786099579 0)
(1.0106605573455 -0.0040932094393071 0)
(1.0000004851725 -0.00012453371525359 0)
(1.0000270738315 -0.00037462934760186 0)
(1.0000783828873 -0.00062510098464413 0)
(1.000155464832 -0.00087586393187316 0)
(1.0002588264052 -0.0011265365809259 0)
(1.0003885129232 -0.001376819010809 0)
(1.0005443198412 -0.0016264525161508 0)
(1.0007260363959 -0.0018752498770961 0)
(1.0009334896618 -0.0021230972118676 0)
(1.001166617304 -0.0023700899508644 0)
(1.0014253367162 -0.002616204726464 0)
(1.0017096736729 -0.0028614366030574 0)
(1.0020194922336 -0.003105296753084 0)
(1.0023548153028 -0.0033475595117501 0)
(1.0027152973569 -0.0035873409151765 0)
(1.0031009993823 -0.0038247528422551 0)
(1.0035112589587 -0.0040585395439831 0)
(1.0039463897449 -0.0042896799289247 0)
(1.0044051764229 -0.004515860347087 0)
(1.0048885894062 -0.0047397947229758 0)
(1.0053942866463 -0.0049565732477266 0)
(1.0059247369736 -0.0051728452707562 0)
(1.0064752330283 -0.0053777601339774 0)
(1.0070515573198 -0.0055870159270264 0)
(1.0076439985891 -0.005776137455232 0)
(1.0082655448604 -0.0059814971798934 0)
(1.0088958264654 -0.0061473998774214 0)
(1.0095634742124 -0.0063573576611592 0)
(1.0102253441358 -0.0064844126487398 0)
(1.0109444658474 -0.006719381896696 0)
(1.0000004941761 -0.00017110516254064 0)
(1.0000278441339 -0.00051481217716045 0)
(1.0000806036304 -0.00085903239415576 0)
(1.0001598234843 -0.0012037040393834 0)
(1.0002659898425 -0.0015483001696132 0)
(1.0003991339118 -0.0018923828257593 0)
(1.0005590343515 -0.0022355649899201 0)
(1.0007454806187 -0.0025775829131746 0)
(1.0009582857748 -0.0029183162604094 0)
(1.0011974160371 -0.0032579756034313 0)
(1.0014627914608 -0.0035966073465467 0)
(1.0017545241584 -0.0039342724542776 0)
(1.0020724757772 -0.0042703181214876 0)
(1.0024168185903 -0.0046044556135188 0)
(1.0027871336539 -0.004935442977136 0)
(1.003183738567 -0.0052634668652951 0)
(1.003605731071 -0.0055867503562567 0)
(1.0040539259679 -0.0059067247742556 0)
(1.0045265042172 -0.0062200947363013 0)
(1.0050254828475 -0.0065307749885434 0)
(1.0055471063935 -0.0068317425227218 0)
(1.0060960913823 -0.0071325448787662 0)
(1.0066645311703 -0.0074176443113171 0)
(1.0072630936341 -0.0077095437405894 0)
(1.0078749621423 -0.0079731985325019 0)
(1.0085237969388 -0.0082606957421413 0)
(1.0091735858992 -0.0084923144186093 0)
(1.0098764140898 -0.0087875546104527 0)
(1.0105548126023 -0.0089647770507109 0)
(1.0113239508693 -0.0092968677885967 0)
(1.0000005021031 -0.00021627512490931 0)
(1.0000286433852 -0.00065081721563452 0)
(1.0000829168864 -0.0010859357416265 0)
(1.0001643853166 -0.0015216341346994 0)
(1.0002735278769 -0.0019572588015072 0)
(1.0004103680896 -0.0023922344606328 0)
(1.0005746636012 -0.0028260351335545 0)
(1.0007662004542 -0.0032583245132175 0)
(1.0009847721503 -0.0036890123124578 0)
(1.0012303823341 -0.0041184944399592 0)
(1.0015029593016 -0.0045469579323664 0)
(1.0018027301284 -0.0049745912610329 0)
(1.0021295613261 -0.0054006031977426 0)
(1.0024838201446 -0.0058246661235903 0)
(1.0028650044208 -0.0062451701212892 0)
(1.0032737612982 -0.0066624056291188 0)
(1.0037088985567 -0.0070740476933694 0)
(1.004171867026 -0.0074820434672803 0)
(1.004660104991 -0.0078820460099605 0)
(1.0051769474144 -0.0082792978351991 0)
(1.0057168878632 -0.0086644869788916 0)
(1.0062874594045 -0.0090503302422854 0)
(1.0068767809663 -0.0094161985676815 0)
(1.0075016234891 -0.0097920060775974 0)
(1.0081363369945 -0.010131229005778 0)
(1.0088178861815 -0.010503029842428 0)
(1.0094908078042 -0.010801617745163 0)
(1.0102363825399 -0.011185529752614 0)
(1.0109344475757 -0.011413865915935 0)
(1.0117650195398 -0.01184841935128 0)
(1.0000005078722 -0.00026003270872388 0)
(1.0000294011058 -0.00078263173467433 0)
(1.0000851109243 -0.001305815965113 0)
(1.0001687092169 -0.0018297024567675 0)
(1.0002806693715 -0.0023535246105838 0)
(1.0004210119683 -0.0028765639856842 0)
(1.0005894755625 -0.0033981402785403 0)
(1.0007858458401 -0.0039178483601391 0)
(1.0010098964869 -0.0044356701233889 0)
(1.0012616795192 -0.0049522675748118 0)
(1.0015411399461 -0.0054680498336129 0)
(1.001848648646 -0.0059834029757209 0)
(1.0021840887862 -0.006497426356906 0)
(1.0025480672221 -0.0070097801297132 0)
(1.0029399971656 -0.0075184753613167 0)
(1.0033609235742 -0.0080239385017562 0)
(1.0038093299936 -0.0085232678482774 0)
(1.0042874241147 -0.0090189972778493 0)
(1.0047917942471 -0.0095056529372154 0)
(1.0053273286161 -0.009989945889436 0)
(1.0058864983043 -0.010460083544851 0)
(1.0064801355466 -0.010932251264322 0)
(1.0070917510284 -0.011380285666852 0)
(1.0077452380055 -0.011842181087072 0)
(1.0084046899385 -0.012258935136751 0)
(1.0091225596627 -0.012718286747026 0)
(1.0098207946788 -0.01308612144412 0)
(1.0106146183629 -0.013563377026097 0)
(1.0113342892684 -0.013844821344707 0)
(1.0122352074086 -0.014388702327979 0)
(1.0000005093139 -0.00030226256180666 0)
(1.0000300232545 -0.00090991684680135 0)
(1.0000869155845 -0.0015181149045705 0)
(1.0001722627428 -0.0021271427182417 0)
(1.0002865338212 -0.0027361344364272 0)
(1.0004297522089 -0.0033442197101751 0)
(1.0006016407914 -0.0039505458116624 0)
(1.0008019887445 -0.0045546430638383 0)
(1.0010305514032 -0.0051566131928385 0)
(1.0012874405655 -0.0057574742558519 0)
(1.0015726288991 -0.0063579486411846 0)
(1.0018866593641 -0.006958697762546 0)
(1.0022294478489 -0.0075587455653415 0)
(1.0026018833176 -0.0081577695081351 0)
(1.0030033016517 -0.0087533931166846 0)
(1.0034352076666 -0.0093462132727696 0)
(1.0038957436961 -0.0099327263446763 0)
(1.0043879784182 -0.01051612634842 0)
(1.0049075779982 -0.011089741724314 0)
(1.0054611782606 -0.011661894054013 0)
(1.0060390294549 -0.012218123783178 0)
(1.0066556503835 -0.012778382276101 0)
(1.0072894658189 -0.013310536339027 0)
(1.0079722928838 -0.013861322553081 0)
(1.0086568862985 -0.014358271758545 0)
(1.0094128855284 -0.014909184612083 0)
(1.0101372516219 -0.01534938529338 0)
(1.0109828294298 -0.015925547601609 0)
(1.0117250298793 -0.016263053900006 0)
(1.012702832547 -0.016924122605521 0)
(1.0000005046516 -0.0003427575728028 0)
(1.0000304191674 -0.0010320546346575 0)
(1.0000880681783 -0.0017218061309979 0)
(1.0001745305533 -0.0024125260214666 0)
(1.0002902748969 -0.0031032637840445 0)
(1.0004353331852 -0.0037929883803041 0)
(1.0006094157401 -0.0044806569688763 0)
(1.0008123185009 -0.0051657415642273 0)
(1.0010437810657 -0.0058485163557522 0)
(1.0013039863597 -0.0065304521485102 0)
(1.0015929478807 -0.0072126834175901 0)
(1.0019114075314 -0.0078962301888511 0)
(1.0022593338382 -0.008580080302508 0)
(1.0026379368466 -0.0092639602700841 0)
(1.003046491093 -0.0099451026309628 0)
(1.0034870153388 -0.010624309734959 0)
(1.0039573120473 -0.011297458953763 0)
(1.0044613956477 -0.011968475491607 0)
(1.0049939759958 -0.012629432946922 0)
(1.005563585143 -0.013290394956567 0)
(1.0061581346205 -0.013934073442953 0)
(1.0067961118944 -0.014584455047151 0)
(1.0074505501502 -0.015203050293209 0)
(1.0081617570447 -0.015845934428385 0)
(1.0088704331763 -0.016426284664113 0)
(1.0096645821083 -0.017073304347523 0)
(1.010414574537 -0.017589729815394 0)
(1.0113134127452 -0.018271000968315 0)
(1.0120780979527 -0.018668498602467 0)
(1.0131369119276 -0.019455299094107 0)
(1.0000004927667 -0.00038125012813185 0)
(1.0000305092103 -0.0011482455341488 0)
(1.0000883357899 -0.001915559244186 0)
(1.0001750554713 -0.0026839929480779 0)
(1.0002911403094 -0.0034525279522198 0)
(1.0004366340006 -0.0042199655266472 0)
(1.0006112363889 -0.004985056785023 0)
(1.0008147532161 -0.0057472238664582 0)
(1.0010469122379 -0.0065069700737623 0)
(1.001307978109 -0.0072663198389921 0)
(1.0015980199522 -0.0080269239715246 0)
(1.0019180031072 -0.0087902476559596 0)
(1.0022679721206 -0.0095552873935104 0)
(1.0026494920748 -0.010321851802375 0)
(1.0030618004085 -0.011086786495412 0)
(1.0035074736793 -0.011851133129343 0)
(1.0039839946509 -0.012610145845578 0)
(1.0044963858053 -0.013368544788211 0)
(1.0050384069154 -0.014117114921438 0)
(1.0056205842014 -0.014867771370867 0)
(1.0062284580716 -0.015600281348102 0)
(1.006884653901 -0.016342881143415 0)
(1.0075566894209 -0.017050431478094 0)
(1.0082936774914 -0.017788816908392 0)
(1.0090239403824 -0.018456168994445 0)
(1.0098544711049 -0.01920415816359 0)
(1.0106282778455 -0.019801317317852 0)
(1.0115798609894 -0.0205942889642 0)
(1.0123660305383 -0.021056698421956 0)
(1.0135075303219 -0.021978118308371 0)
(1.000000472358 -0.00041744042718812 0)
(1.0000302262019 -0.0012575901441436 0)
(1.0000875291172 -0.002097876017384 0)
(1.0001734628817 -0.0029394471192175 0)
(1.0002885023562 -0.003781235256416 0)
(1.0004327051537 -0.0046218684478621 0)
(1.0006057643289 -0.005459877188134 0)
(1.0008074992174 -0.0062946436293366 0)
(1.0010376309617 -0.0071269596879862 0)
(1.001296514958 -0.0079595061645602 0)
(1.0015842910991 -0.0087945579011073 0)
(1.0019021684037 -0.0096341127545834 0)
(1.0022502929931 -0.010477226125824 0)
(1.0026306122468 -0.011323822116916 0)
(1.0030423582395 -0.012170373357421 0)
(1.0034886967708 -0.013018191656146 0)
(1.0039668292698 -0.013861921072413 0)
(1.0044828232132 -0.014707128271179 0)
(1.005029535425 -0.015543308537067 0)
(1.0056195296249 -0.016384304640026 0)
(1.0062360313882 -0.017206888202917 0)
(1.0069058529019 -0.018043679205171 0)
(1.0075910623733 -0.018842729854184 0)
(1.0083496312466 -0.019680021847399 0)
(1.0090975799234 -0.020438232447642 0)
(1.009960948722 -0.021292161248313 0)
(1.0107554662845 -0.021975120583615 0)
(1.0117572511472 -0.022886528468737 0)
(1.0125629532114 -0.023419758760169 0)
(1.0137863511577 -0.024484696668267 0)
(1.0000004426567 -0.00045102002048648 0)
(1.0000295177007 -0.0013591589188669 0)
(1.0000854969768 -0.0022672095619151 0)
(1.0001694496638 -0.0031767273098536 0)
(1.000281851153 -0.0040866131011377 0)
(1.0004227756123 -0.0049953159781266 0)
(1.000591913611 -0.0059011320376791 0)
(1.0007891004352 -0.0068034138540043 0)
(1.0010140549576 -0.0077033024197171 0)
(1.0012672293407 -0.0086042363158283 0)
(1.0015488493424 -0.0095092231434988 0)
(1.0018603828388 -0.010420879768313 0)
(1.0022021038489 -0.011338376215162 0)
(1.0025763604567 -0.012261784643167 0)
(1.0029824169433 -0.013187230522735 0)
(1.0034240453658 -0.014116321860808 0)
(1.003898221203 -0.015043127351537 0)
(1.0044120660925 -0.015974094992819 0)
(1.0049576208633 -0.016897470731606 0)
(1.0055494728091 -0.017829057417291 0)
(1.0061686767006 -0.018742664044196 0)
(1.0068461589214 -0.019675324505963 0)
(1.0075387923527 -0.020568297622307 0)
(1.0083131966889 -0.021507714601346 0)
(1.0090735701121 -0.022360755243441 0)
(1.0099644924731 -0.0233254930906 0)
(1.0107753416406 -0.024099774732062 0)
(1.0118227720773 -0.025136255257193 0)
(1.0126450902915 -0.025747185042831 0)
(1.0139471470957 -0.026964231849264 0)
(1.000000403249 -0.00048169644376688 0)
(1.0000283460537 -0.0014520700638744 0)
(1.0000821281981 -0.0024220935683054 0)
(1.0001627932536 -0.0033937836814359 0)
(1.0002708138439 -0.0043660281299244 0)
(1.0004062819375 -0.0053370910131072 0)
(1.0005688894658 -0.0063050213293152 0)
(1.0007584884507 -0.0072691524981089 0)
(1.0009747989431 -0.0082310342854077 0)
(1.0012183716286 -0.0091949599295221 0)
(1.0014895305284 -0.010164776601525 0)
(1.0017900103798 -0.011143802408416 0)
(1.002120239109 -0.012131382740871 0)
(1.0024829739337 -0.013127768549928 0)
(1.0028775527554 -0.014128777342408 0)
(1.0033083546359 -0.01513633260923 0)
(1.0037721989928 -0.016143987311672 0)
(1.0042772417739 -0.017159084627366 0)
(1.004814831409 -0.018168710362312 0)
(1.0054015070876 -0.019190606916297 0)
(1.0060163802961 -0.020195753699623 0)
(1.0066942983646 -0.021225504330081 0)
(1.0073873749215 -0.02221454801196 0)
(1.0081704133929 -0.023258936042498 0)
(1.0089366523485 -0.024210747179946 0)
(1.0098481627652 -0.025290853377853 0)
(1.0106697099254 -0.026162319816886 0)
(1.0117562576958 -0.027330166269876 0)
(1.0125912786436 -0.028026603766909 0)
(1.0139663474897 -0.029403730842526 0)
(1.0000003541319 -0.00050921437196721 0)
(1.0000266891717 -0.0015355514053941 0)
(1.0000773587993 -0.0025612428047143 0)
(1.0001533652606 -0.0035888164325181 0)
(1.0002551734528 -0.0046171628980587 0)
(1.0003828931846 -0.0056443549277126 0)
(1.0005362204798 -0.0066681826282415 0)
(1.0007150224992 -0.0076879698435823 0)
(1.0009190222712 -0.0087057324958747 0)
(1.0011488663299 -0.0097267082530099 0)
(1.0014049865565 -0.010755686270337 0)
(1.0016893838925 -0.011796761233445 0)
(1.0020026626261 -0.012849518300034 0)
(1.0023479858904 -0.013914414277396 0)
(1.0027248086789 -0.014987012252888 0)
(1.0031381005603 -0.016069561982452 0)
(1.0035846058623 -0.017155187556711 0)
(1.004073465404 -0.018252116449984 0)
(1.0045954904322 -0.019346418151609 0)
(1.0051690443645 -0.020457693467097 0)
(1.0057715973537 -0.021554338619229 0)
(1.0064416115831 -0.02268179131994 0)
(1.00712704186 -0.023768632720288 0)
(1.0079101741517 -0.024920284402914 0)
(1.008674503847 -0.025974623391442 0)
(1.0095980484809 -0.027174137276692 0)
(1.0104234332159 -0.028148860263618 0)
(1.0115406693521 -0.029453776932034 0)
(1.0123834395705 -0.030244392986365 0)
(1.0138235417759 -0.031788643531004 0)
(1.0000002954734 -0.00053337005228247 0)
(1.0000245426158 -0.0016089837533592 0)
(1.0000711735956 -0.0026836259679756 0)
(1.0001411328788 -0.0037603784045322 0)
(1.0002348717428 -0.0048381485388466 0)
(1.0003525157104 -0.0059148105358776 0)
(1.0004937660949 -0.006987884408808 0)
(1.0006585008411 -0.0080566922512699 0)
(1.0008464454041 -0.0091237693167996 0)
(1.0010583343866 -0.010195377628221 0)
(1.0012947131852 -0.01127734399183 0)
(1.0015578395748 -0.012374606116897 0)
(1.0018485123171 -0.013487055851586 0)
(1.0021702837586 -0.014615377466521 0)
(1.0025227677831 -0.015754946919337 0)
(1.0029114905576 -0.016908340770923 0)
(1.003333209567 -0.018068369555854 0)
(1.0037979722733 -0.019244106477458 0)
(1.0042962324656 -0.020420806669675 0)
(1.0048479979515 -0.021619781881247 0)
(1.0054294620455 -0.022807214237424 0)
(1.0060822928572 -0.024032235882799 0)
(1.0067510288423 -0.025218041143158 0)
(1.007524529066 -0.026478522077356 0)
(1.0082780645794 -0.027638806333266 0)
(1.0092036243004 -0.02896103775085 0)
(1.0100248034236 -0.030045149114571 0)
(1.011162503325 -0.031492003412439 0)
(1.012006981301 -0.032386233688729 0)
(1.0135019206825 -0.034103415827846 0)
(1.0000002280167 -0.00055402113839162 0)
(1.0000219177559 -0.0016719308480954 0)
(1.0000636048651 -0.0027885154935699 0)
(1.0001261574286 -0.003907445387126 0)
(1.0002100054336 -0.0050276558787204 0)
(1.0003152867806 -0.0061468141933508 0)
(1.000441707607 -0.0072621594439647 0)
(1.0005891493254 -0.008373017284449 0)
(1.0007573365384 -0.0094824896254343 0)
(1.0009470787016 -0.010597930581496 0)
(1.0011590355643 -0.011726291037717 0)
(1.00139570317 -0.012873407170785 0)
(1.0016580871014 -0.014039545706918 0)
(1.0019500995744 -0.015225633546576 0)
(1.0022715508781 -0.016426939451467 0)
(1.0026284713592 -0.017646355109916 0)
(1.0030177224793 -0.018876520427782 0)
(1.0034501533893 -0.020127286280356 0)
(1.0039160566446 -0.021383354405936 0)
(1.0044368579465 -0.022667530364609 0)
(1.004987885426 -0.023944278537089 0)
(1.0056135168944 -0.025265874500324 0)
(1.006255728743 -0.026551119925068 0)
(1.0070088685041 -0.027921108463654 0)
(1.0077417484284 -0.029190257631774 0)
(1.0086579996018 -0.030637582731452 0)
(1.0094658079614 -0.031837108063722 0)
(1.0106120897255 -0.033429681400955 0)
(1.0114511047949 -0.034437594852339 0)
(1.0129886120169 -0.036331977708106 0)
(1.0000001524946 -0.00057109179939285 0)
(1.00001884159 -0.0017241549951918 0)
(1.0000547276413 -0.0028755140159296 0)
(1.0001085839468 -0.0040294534008115 0)
(1.0001808113102 -0.0051849442429116 0)
(1.000271554276 -0.0063394372453014 0)
(1.0003805212609 -0.0074898796991209 0)
(1.0005075871002 -0.0086356029109418 0)
(1.0006524693893 -0.0097803153512572 0)
(1.0008160340798 -0.010932517040934 0)
(1.0009990507114 -0.012100357807126 0)
(1.0012042259272 -0.01329061519931 0)
(1.0014327774411 -0.014503998191899 0)
(1.0016889356292 -0.01574168438062 0)
(1.0019727388071 -0.016998926190552 0)
(1.0022906523304 -0.018278906187416 0)
(1.00263972929 -0.019574260889322 0)
(1.0030314910187 -0.020895520740776 0)
(1.0034562729494 -0.022227150985203 0)
(1.0039366523831 -0.023593164517624 0)
(1.0044475345401 -0.024956929418517 0)
(1.0050354391709 -0.026373151969841 0)
(1.005640715457 -0.027757511011041 0)
(1.0063619798222 -0.029236658235274 0)
(1.0070635281359 -0.030616942164237 0)
(1.0079580371604 -0.032190613654127 0)
(1.0087422804113 -0.033511294152095 0)
(1.0098837784944 -0.035252036717043 0)
(1.0107090008814 -0.036384169836406 0)
(1.0122749069112 -0.038458177570682 0)
(1.0000000701892 -0.00058457365796626 0)
(1.0000153531983 -0.0017656201874694 0)
(1.0000446540918 -0.0029445594501962 0)
(1.0000886313974 -0.0041263066633986 0)
(1.0001476473185 -0.0053098725883945 0)
(1.0002218471395 -0.0064924804777704 0)
(1.0003109375923 -0.0076707748758312 0)
(1.0004147741641 -0.0088440916245315 0)
(1.0005330581288 -0.010016777077179 0)
(1.0006666888581 -0.011198516143885 0)
(1.0008165354249 -0.012398718459201 0)
(1.0009854791048 -0.013625132522208 0)
(1.0011749468058 -0.014878972882069 0)
(1.0013894342427 -0.016161669156594 0)
(1.001629231096 -0.01746855478041 0)
(1.0019011545037 -0.018803068962021 0)
(1.0022025300187 -0.020158029888385 0)
(1.0025454004283 -0.021544523894529 0)
(1.0029203463875 -0.022947141665938 0)
(1.0033507986081 -0.024390755839925 0)
(1.0038116950485 -0.025838370383048 0)
(1.0043510748368 -0.027346259646744 0)
(1.0049086412815 -0.028828508673649 0)
(1.0055859629713 -0.030415324639702 0)
(1.0062448780128 -0.031908219423146 0)
(1.0071043308168 -0.033608200693209 0)
(1.007853914955 -0.035055315038844 0)
(1.0089759891224 -0.036945114892672 0)
(1.0097779410584 -0.038212270901656 0)
(1.0113563780779 -0.040466224526918 0)
(0.99999998232331 -0.00059452319441822 0)
(1.0000115029241 -0.0017964849942377 0)
(1.0000335261094 -0.002995912574084 0)
(1.00006657694 -0.0041983593719411 0)
(1.0001109693136 -0.0054028773424893 0)
(1.000166841239 -0.006606450380514 0)
(1.0002338926431 -0.0078054079067009 0)
(1.0003119459974 -0.0089990851282984 0)
(1.0004006740179 -0.010192487465698 0)
(1.000500982764 -0.011396509337533 0)
(1.0006138244524 -0.012621865653119 0)
(1.0007422125453 -0.013877294143043 0)
(1.0008877707529 -0.015164570343628 0)
(1.0010551987339 -0.016485373204049 0)
(1.0012450492967 -0.017835211950148 0)
(1.0014643980996 -0.019217744884307 0)
(1.0017109113641 -0.02062615955195 0)
(1.001996989209 -0.022071965183171 0)
(1.0023136479608 -0.023540258873812 0)
(1.0026848512967 -0.025056393352282 0)
(1.003086023135 -0.026583809461351 0)
(1.0035660597894 -0.028179382795233 0)
(1.0040650168739 -0.029757330961621 0)
(1.0046860284766 -0.031449115644976 0)
(1.0052905948767 -0.033055165128267 0)
(1.0061010323904 -0.034879996955194 0)
(1.0068041450665 -0.03645818817267 0)
(1.0078911177787 -0.038496160580521 0)
(1.0086592170725 -0.039909250462484 0)
(1.0102327903727 -0.042340819919759 0)
(0.99999989104548 -0.00060105427492836 0)
(1.000007348098 -0.0018170860203474 0)
(1.0000215072772 -0.003030133551173 0)
(1.0000427413249 -0.0042463847791109 0)
(1.0000713038304 -0.0054649304404063 0)
(1.0001073188437 -0.0066825042402996 0)
(1.0001504736522 -0.0078951103982257 0)
(1.0002005430673 -0.0091020754214401 0)
(1.0002571561411 -0.010309072016811 0)
(1.0003211963364 -0.011528212141367 0)
(1.0003936754828 -0.012771542191333 0)
(1.0004776931185 -0.014048798985079 0)
(1.0005750470974 -0.015362362927724 0)
(1.0006905772959 -0.016714163643301 0)
(1.0008250952924 -0.018099965973098 0)
(1.0009858399985 -0.019523622005391 0)
(1.0011708623997 -0.020978849173552 0)
(1.0013927555939 -0.022477473423016 0)
(1.001643132293 -0.024005439025676 0)
(1.0019461670505 -0.025588244900934 0)
(1.0022781962089 -0.027190528378153 0)
(1.0026882970639 -0.028868838436014 0)
(1.0031178704475 -0.030539264360336 0)
(1.0036701678306 -0.032332135890696 0)
(1.0042085120504 -0.034050808308766 0)
(1.0049555522627 -0.035997523483209 0)
(1.0055999036965 -0.037710670646904 0)
(1.0066352575796 -0.039893841257185 0)
(1.0073580730541 -0.041464045122022 0)
(1.0089085729821 -0.04406825016283 0)
(0.99999979624501 -0.00060433256418485 0)
(1.0000029488427 -0.0018278949048817 0)
(1.0000087742387 -0.0030480118015959 0)
(1.0000174664074 -0.004271496100698 0)
(1.0000292151771 -0.0054974611027462 0)
(1.0000441222624 -0.0067223759175432 0)
(1.0000618552073 -0.0079419076516792 0)
(1.0000821281418 -0.0091553631052664 0)
(1.0001045106421 -0.010369080919855 0)
(1.0001298327153 -0.011596383173739 0)
(1.0001591333753 -0.012850652953016 0)
(1.0001955480301 -0.014142627163973 0)
(1.0002410139584 -0.01547531899929 0)
(1.0003004515918 -0.016850919759459 0)
(1.0003749074162 -0.018265502569404 0)
(1.0004716998036 -0.01972312052846 0)
(1.0005892690836 -0.021218115870021 0)
(1.000740261908 -0.022762610509846 0)
(1.0009169809102 -0.024343593285024 0)
(1.0011435333952 -0.025986575281516 0)
(1.0013975060664 -0.027657866966065 0)
(1.001727532547 -0.029413154028976 0)
(1.0020772931023 -0.031171660712399 0)
(1.0025486885275 -0.033060786921068 0)
(1.0030091332874 -0.034890204855062 0)
(1.0036780417394 -0.036954599751933 0)
(1.0042516122095 -0.038805204280568 0)
(1.005216596947 -0.041128642469638 0)
(1.0058860478147 -0.042867701600789 0)
(1.0073849721499 -0.04563283224841 0)
(0.99999970003387 -0.00060454763347272 0)
(0.99999835071579 -0.0018295018489869 0)
(0.99999546688478 -0.0030505458593413 0)
(0.99999106538443 -0.0042750858266416 0)
(0.99998524894432 -0.0055022463207178 0)
(0.99997808155523 -0.0067282259917476 0)
(0.99996921000524 -0.0079483451023999 0)
(0.99995827756968 -0.009161873421025 0)
(0.99994478268456 -0.010375807770145 0)
(0.99992946855681 -0.011604654615991 0)
(0.99991336290863 -0.01286311929109 0)
(0.99989957543463 -0.014162921902239 0)
(0.9998901424878 -0.015507722813497 0)
(0.99989000301557 -0.01689998681147 0)
(0.99990040592535 -0.018336125164476 0)
(0.99992867175029 -0.019820426913834 0)
(0.99997360140401 -0.021347874850902 0)
(1.0000477877913 -0.022930980656147 0)
(1.0001442274701 -0.02455774344439 0)
(1.0002867788665 -0.026253916221126 0)
(1.0004544229588 -0.027987344240145 0)
(1.0006949303038 -0.029813266869853 0)
(1.0009548942114 -0.031653876422259 0)
(1.001333691031 -0.033633985677866 0)
(1.0017049309445 -0.035570059272958 0)
(1.0022811772175 -0.037747880082507 0)
(1.0027722272623 -0.039735521533388 0)
(1.003647554679 -0.04219350428818 0)
(1.0042531491905 -0.044109558570858 0)
(1.0056773151769 -0.047023752865552 0)
(0.99999959930625 -0.0006019343500274 0)
(0.99999359501329 -0.0018225656733982 0)
(0.99998172783233 -0.003038799330512 0)
(0.99996383686218 -0.0042586252835679 0)
(0.99993992129568 -0.0054811739219781 0)
(0.99990998628015 -0.0067023763425509 0)
(0.99987366600283 -0.0079171824485506 0)
(0.99983051334216 -0.0091247865732405 0)
(0.99977994951244 -0.010332828857119 0)
(0.99972259672865 -0.011556964499052 0)
(0.99965944729682 -0.012813222189443 0)
(0.99959349729403 -0.014114272732814 0)
(0.99952686056688 -0.015464439540459 0)
(0.99946438874175 -0.016866430976954 0)
(0.99940755184301 -0.018317037454347 0)
(0.99936352528785 -0.019820772603321 0)
(0.99933152310028 -0.021373280246521 0)
(0.99932386738605 -0.022987546657535 0)
(0.99933434517503 -0.024652439975969 0)
(0.99938628489812 -0.026394418331772 0)
(0.9994602028765 -0.028182109396559 0)
(0.9996026728028 -0.030071875939631 0)
(0.99976340797508 -0.031986454976991 0)
(1.0000388379524 -0.034052351022905 0)
(1.0003094273897 -0.036086770976513 0)
(1.0007800507693 -0.038376089889674 0)
(1.0011761304226 -0.040492965740943 0)
(1.0019461406998 -0.043086136570258 0)
(1.0024737664514 -0.045173228673379 0)
(1.0038032796483 -0.048227313738953 0)
(0.99999949123651 -0.00059681557103089 0)
(0.99998880003179 -0.0018080274653548 0)
(0.99996782152095 -0.0030141948976476 0)
(0.99993620738187 -0.0042238915164016 0)
(0.99989383562579 -0.0054363305464869 0)
(0.9998406700021 -0.0066472484470377 0)
(0.99977638339563 -0.0078511764185965 0)
(0.99970040081747 -0.0090472387882194 0)
(0.99961203881845 -0.010243629959082 0)
(0.99951172062939 -0.01145701557145 0)
(0.99940039754146 -0.012704761734851 0)
(0.99928085585604 -0.014000498089197 0)
(0.99915534809737 -0.015349313712307 0)
(0.99902844399272 -0.016754091435125 0)
(0.99890199799892 -0.018212114594137 0)
(0.99878266334886 -0.019727948924352 0)
(0.99867045967065 -0.021298106997107 0)
(0.99857671042095 -0.022935817759902 0)
(0.99849682313855 -0.024631084318468 0)
(0.9984522847197 -0.026411021051752 0)
(0.99842669746482 -0.02824481706591 0)
(0.99846324650269 -0.030191184605822 0)
(0.9985172438527 -0.03217048740781 0)
(0.99867884487865 -0.034317417176885 0)
(0.99883897355029 -0.036437541918095 0)
(0.99919047849433 -0.038841445777348 0)
(0.99948084323287 -0.041067205990197 0)
(1.0001313505974 -0.043819104748325 0)
(1.0005760692318 -0.046040205328125 0)
(1.0017841525577 -0.049272009346096 0)
(0.99999936109473 -0.00058970367604929 0)
(0.99998418655503 -0.0017875083612433 0)
(0.99995430911485 -0.0029792533652909 0)
(0.99990899630026 -0.00417408258316 0)
(0.99984795305619 -0.0053713852696641 0)
(0.99977125234842 -0.0065669487348726 0)
(0.99967867606683 -0.0077544611767302 0)
(0.99956951479909 -0.0089334223138793 0)
(0.9994430936986 -0.010112588989708 0)
(0.99929948188677 -0.011309371567267 0)
(0.99913943005987 -0.012542334141496 0)
(0.99896536005025 -0.013825999513055 0)
(0.99877980021205 -0.015166414496321 0)
(0.99858686741738 -0.01656664089312 0)
(0.99838911586824 -0.018024747383832 0)
(0.99819211140195 -0.019545121831708 0)
(0.99799742957779 -0.021125727751687 0)
(0.99781401586178 -0.022779366465413 0)
(0.99764081124775 -0.024498445296472 0)
(0.99749430669535 -0.026309256010686 0)
(0.99736578126982 -0.028183965345965 0)
(0.9972880370466 -0.030181305028758 0)
(0.99723209496981 -0.032221788736302 0)
(0.99726691837817 -0.034448488195764 0)
(0.99731446559872 -0.036648755126817 0)
(0.99752540301179 -0.03918073335009 0)
(0.99770944541458 -0.041489878628986 0)
(0.99820756345447 -0.044472920586954 0)
(0.99859394882601 -0.046729550086638 0)
(0.99964337287458 -0.050408834443662 0)
(0.99999914560008 -0.0005817856660365 0)
(0.99997944505498 -0.0017646365449378 0)
(0.99994106154157 -0.0029408339978009 0)
(0.99988230722528 -0.0041200434085691 0)
(0.99980250883586 -0.0053012481225384 0)
(0.99970245550647 -0.0064809216895319 0)
(0.99958179870776 -0.0076508219061856 0)
(0.99943914846635 -0.0088108488659709 0)
(0.99927447117722 -0.0099705160243993 0)
(0.99908762962744 -0.011148458417067 0)
(0.99887896128375 -0.012364804003221 0)
(0.99865026261715 -0.013635013531384 0)
(0.99840420609478 -0.014966139188619 0)
(0.99814441173873 -0.016361261381709 0)
(0.99787422310443 -0.017819406329428 0)
(0.9975979079603 -0.01934461250827 0)