/*--------------------------------*- C++ -*----------------------------------*\
| =========                 |                                                 |
| \\      /  F ield         | OpenFOAM: The Open Source CFD Toolbox           |
|  \\    /   O peration     | Version:  2112                                  |
|   \\  /    A nd           | Website:  www.openfoam.com                      |
|    \\/     M anipulation  |                                                 |
\*---------------------------------------------------------------------------*/
FoamFile
{
    version     2.0;
    format      ascii;
    arch        "LSB;label=32;scalar=64";
    class       surfaceScalarField;
    location    "18.8";
    object      phi;
}
// * * * * * * * * * * * * * * * * * * * * * * * * * * * * * * * * * * * * * //

dimensions      [0 3 -1 0 0 0 0];

oriented        oriented;

internalField   nonuniform List<scalar> 
43645
(
0.39512383576768
-4.9627628934837e-06
0.39513870853303
-1.4872836411103e-05
0.39516349965765
-2.4791201512752e-05
0.39519822231506
-3.4722736862432e-05
0.39524285684449
-4.4634609221828e-05
0.39529735678261
-5.450001712545e-05
0.39536165947256
-6.4302767429595e-05
0.39543569531628
-7.4035919478682e-05
0.39551939038973
-8.3695147247127e-05
0.39561267167099
-9.3281353143291e-05
0.39571546236471
-0.00010279076356486
0.39582768677295
-0.00011222447618324
0.39594925644426
-0.00012156973723942
0.39608008328782
-0.00013082690768081
0.39622005377937
-0.00013997055377912
0.39636906676414
-0.00014901304536593
0.39652697919881
-0.00015791249357903
0.396693693108
-0.00016671396673049
0.39686902618738
-0.00017533313549733
0.39705290570657
-0.00018387957425536
0.39724506829962
-0.00019216264700597
0.39744550614454
-0.00020043789815957
0.39765378420841
-0.00020827811632858
0.39787006867118
-0.00021628451483315
0.39809356977849
-0.00022350115891631
0.39832489654476
-0.00023132681778092
0.39856249940298
-0.00023760290952767
0.39880804381612
-0.00024554446392998
0.39905829729123
-0.00025025352490288
-0.00025902409931267
0.39931732133983
0.37294718963191
-9.5977605723097e-06
0.37296116817902
-2.8851499305625e-05
0.37298465732704
-4.8280467434353e-05
0.3730176588463
-6.7724373908744e-05
0.37306014224161
-8.7118120778969e-05
0.37311205927426
-0.00010641716394088
0.37317335252416
-0.00012559612900332
0.37324396031394
-0.00014464381843906
0.37332381688322
-0.00016355182300287
0.37341285707855
-0.00018232165238403
0.37351101218036
-0.00020094596654443
0.37361821483152
-0.00021942722597808
0.37373438533128
-0.00023774033293484
0.37385944398296
-0.00025588565291681
0.37399328587334
-0.00027381253521058
0.37413581786843
-0.00029154512939147
0.37428690652105
-0.00030900123293144
0.3744464630798
-0.00032627061048663
0.37461431825579
-0.0003431883946835
0.37479041024857
-0.0003599716489302
0.37497449337984
-0.00037624585878784
0.37516657006067
-0.00039251465865038
0.37536622926144
-0.00040793739580449
0.37557364203309
-0.00042369736475421
0.37578805541322
-0.00043791461673491
0.37601007000106
-0.00045334148326265
0.37623820394118
-0.00046573692701416
0.37647408500085
-0.00048142560016293
0.37671462198759
-0.00049079058561508
-0.00050820048174058
0.37696379829387
0.35201545669427
-1.4157043449694e-05
0.35202917144104
-4.2566366816458e-05
0.35205210227992
-7.1211427425507e-05
0.35208424834184
-9.9870555582121e-05
0.35212557100502
-0.00012844090126753
0.35217601552318
-0.00015686179670309
0.35223552402804
-0.00018510474540979
0.35230403949722
-0.00021315939623932
0.35238150335646
-0.00024101578768139
0.35246785893951
-0.00026867733793033
0.35256304670436
-0.0002961338306816
0.35266700936974
-0.00032338998777175
0.35277967715172
-0.0003504082082378
0.35290098041841
-0.00037718901029544
0.35303082290683
-0.00040365511149611
0.35316912110994
-0.00042984341811414
0.35331574995925
-0.00045563016545579
0.35347063330307
-0.00048115403577253
0.35363361222519
-0.00050616739638325
0.35380464360532
-0.00053100310744853
0.35398349241271
-0.00055509474322943
0.35417018712142
-0.00057920944378349
0.35436432105126
-0.00060207140126618
0.35456610247762
-0.00062547886663135
0.35477476417505
-0.00064657638936117
0.35499096673161
-0.00066954411538776
0.35521316859589
-0.00068793886693481
0.35544310685977
-0.00071136393935659
0.35567752288931
-0.00072520668807726
-0.00075127666268974
0.35592059899438
0.33225851828101
-1.8631465285118e-05
0.33227199856324
-5.6046756519162e-05
0.33229451808374
-9.3731055893776e-05
0.33232605048534
-0.0001314030640906
0.33236653531109
-0.00016892583183083
0.33241590724531
-0.00020623383342526
0.33247410822795
-0.00024330582786603
0.33254108696094
-0.00028013822650805
0.33261679293032
-0.00031672185147552
0.33270117901136
-0.00035306351077729
0.3327941962848
-0.00038915119301856
0.33289579958786
-0.00042499337718196
0.33300593111057
-0.00046053981446567
0.33312453352144
-0.00049579150234808
0.33325152079883
-0.00053064246749102
0.33338682117308
-0.00056514386897726
0.33353031926803
-0.00059912833483758
0.33368195467301
-0.00063278951365657
0.33384158036318
-0.00066579315773133
0.33400917707802
-0.00069859989245034
0.33418452101153
-0.00073043874565903
0.33436767453691
-0.00076236303757486
0.33455823202169
-0.00079262895369288
0.33475645188969
-0.00082369880222077
0.33496154095665
-0.00085166552355836
0.33517424660439
-0.00088224983071244
0.33539294155641
-0.00090663388651133
0.3356195382987
-0.00093796074886227
0.33585056240483
-0.00095623085913876
-0.00099129690561872
0.33609058257994
0.31361045849148
-2.3032667175397e-05
0.31362374456201
-6.9332923102545e-05
0.31364592906018
-0.00011591565017784
0.31367696243319
-0.00016243653194434
0.31371675953944
-0.00020872303072408
0.31376524205738
-0.0002547164416797
0.3138223517238
-0.00030041558188492
0.31388804464752
-0.00034583123528094
0.31396228064601
-0.0003909579321418
0.3140450246302
-0.00043580757455868
0.31413624099931
-0.00048036763881847
0.31423589974881
-0.0005246522008891
0.31434395813782
-0.00056859827492609
0.31446037429824
-0.00061220773198545
0.31458507522926
-0.0006553434652875
0.31471800393256
-0.00069807263723092
0.31485905747069
-0.0007401819359083
0.3150081951288
-0.00078192723338657
0.31516528520414
-0.00082288329320103
0.31533033802596
-0.00086365277363098
0.31550314452647
-0.00090324530454975
0.31568380872535
-0.00094302729461021
0.3158719277224
-0.00098074800843084
0.31606782124429
-0.0010195923820836
0.31627066692006
-0.0010545112572691
0.31648131753953
-0.0010929005088416
0.31669804421971
-0.0011233606256705
0.31692296815401
-0.001162884742252
0.31715234817891
-0.0011856109414481
-0.0012301498745728
0.31739120108717
0.29600902918678
-2.7360077259487e-05
0.29602212273488
-8.2426559513071e-05
0.2960439744818
-0.00013776748534017
0.29607451194686
-0.00019297408408746
0.29611362489991
-0.00024783606885622
0.29616122211052
-0.00030231373533774
0.29621724628771
-0.00035643983970512
0.29628166304598
-0.00041024807195843
0.29635444519439
-0.00046374015639093
0.29643557270028
-0.0005169351540027
0.29652502659115
-0.00056982160061688
0.29662279559197
-0.00062242127043183
0.29672885573531
-0.00067465848445963
0.2968431843823
-0.00072653644317686
0.29696572527596
-0.00077788442086043
0.29709644006274
-0.00082878748427094
0.29723524226738
-0.00087898419890913
0.29738211548586
-0.00092880050901009
0.29753694817376
-0.00097771603676852
0.2976997859814
-0.001026490636211
0.29787043988425
-0.0010738992613161
0.29804906216565
-0.0011216496296542
0.29823525724251
-0.0011669431383451
0.2984294135178
-0.001213748710594
0.2986306811086
-0.0012557789010662
0.29884002746541
-0.0013022469191788
0.29905561670538
-0.0013389499192476
0.29927979410139
-0.0013870621917936
0.29950853106528
-0.0014143479571409
-0.0014689413953029
0.29974732253104
0.27939547412957
-3.1599760318791e-05
0.27940833599784
-9.5288505509605e-05
0.27942979075057
-0.00015922231552376
0.27945974314974
-0.0002229265595492
0.27949805796439
-0.00028615095791091
0.27954463197897
-0.0003488878224447
0.27959941070695
-0.00041121863794653
0.27966237170668
-0.00047320913992064
0.2797335036081
-0.00053487212364065
0.27981280455243
-0.0005962361620871
0.27990027564056
-0.00065729275007064
0.27999592802228
-0.00071807371147645
0.28009976047078
-0.00077849098995301
0.28021177361584
-0.0008385496434523
0.28033193223032
-0.00089804308846817
0.28046022093177
-0.00095707623741606
0.28059657459166
-0.0010153379087596
0.2807410060934
-0.0010732320597005
0.28089342997337
-0.0011301399643904
0.28105393286962
-0.0011869935795598
0.2812223527086
-0.0012423191465305
0.28139889578724
-0.0012981927544275
0.28158318128552
-0.0013512286823209
0.28177567141322
-0.0014062388843193
0.28197549648972
-0.0014556040235118
0.28218374263219
-0.0015104931082691
0.2823984744594
-0.0015536817932858
0.2826222651339
-0.0016108529132346
0.28285080445646
-0.0016428873252954
-0.0017082113915499
0.28309007440383
0.26371433739262
-3.5727769194149e-05
0.26372689656955
-0.00010784775246674
0.26374783900092
-0.00018016481664276
0.26377704742104
-0.0002521350484524
0.26381436219883
-0.00032346580290143
0.26385966937301
-0.00039419506229519
0.26391291921064
-0.00046446853935973
0.26397410362176
-0.00053439361317802
0.26404322979265
-0.00060399835462102
0.26412031700583
-0.00067332343366111
0.26420538975039
-0.00074236555091125
0.26429848514257
-0.00081116915826957
0.26439962864009
-0.00087963454004107
0.2645088481681
-0.00094776922249895
0.26462613408819
-0.0010153290577193
0.26475149849694
-0.0010824406940623
0.26488490309814
-0.0011487425562488
0.26502639520105
-0.0012147242079726
0.26517592225255
-0.0012796670599781
0.26533361742299
-0.001344688793514
0.26549935400462
-0.0014080557707438
0.26567339744161
-0.0014722362338015
0.26585539211074
-0.0015332233932164
0.26604587726456
-0.0015967240800369
0.26624397681461
-0.0016537036151259
0.26645089482934
-0.0017174111649545
0.26666461494516
-0.0017674019509252
0.26688792985182
-0.0018341678615718
0.26711627451425
-0.0018712320279574
-0.0019480343920646
0.26735609747159
0.24891327836234
-3.971349917697e-05
0.24892544119092
-0.00012001064194284
0.24894572075934
-0.00020044444568318
0.2489739784749
-0.00028039282381982
0.24901003130825
-0.00035951869467496
0.24905375604349
-0.00043791985470771
0.24910510958948
-0.00051582214090326
0.24916410031602
-0.00059338439392729
0.24923075630222
-0.00067065439327258
0.24930512049084
-0.00074768767335091
0.24938724365349
-0.00082448876280607
0.24947719195768
-0.00090111751034425
0.24957502113924
-0.00097746376771479
0.24968079008983
-0.0010535382179517
0.24979451923761
-0.0011290582487274
0.24991625249539
-0.0012041739940425
0.25004598413354
-0.001278474235193
0.2501838008621
-0.0013525409765675
0.25032969045824
-0.0014255566950386
0.25048383777893
-0.0014988361526757
0.25064616116165
-0.0015703791911188
0.25081698941403
-0.0016430645236945
0.25099600512116
-0.0017122391373178
0.25118382582402
-0.0017845448200227
0.25137958778734
-0.0018494656152533
0.2515846071006
-0.0019224305153859
0.25179681535716
-0.0019796102444926
0.25201920429471
-0.0020565568359895
0.25224700185869
-0.0020990296275095
-0.002188108132595
0.25248707556082
0.23494289705961
-4.3523049925769e-05
0.23495455707004
-0.00013167070641855
0.23497400365948
-0.00021989108896069
0.23500107715116
-0.00030746636874948
0.23503557253713
-0.00039401413279273
0.23507735903797
-0.00047970640679566
0.23512640181758
-0.00056486497047045
0.23518272722507
-0.00064970985039055
0.23524638592071
-0.00073431313648912
0.23531744634418
-0.00081874814335482
0.23539598774165
-0.00090303020533005
0.23548210764583
-0.00098723745852588
0.23557589499879
-0.0010712511632043
0.23567744266107
-0.0011550859217677
0.2357868051855
-0.0012384208132884
0.23590406212127
-0.0013214309691068
0.23602924590583
-0.0014036580577868
0.23616248709031
-0.0014857821984307
0.2363038213792
-0.0015668910202539
0.23645348972733
-0.001648504536697
0.23661146599918
-0.0017283554979974
0.23677814545814
-0.0018097440174907
0.23695326416455
-0.0018873578778883
0.23713751687087
-0.0019687975605004
0.23733007574384
-0.0020420245218795
0.23753235814737
-0.0021247129526942
0.23774228271928
-0.0021895348497635
0.23796300844401
-0.0022772825937176
0.23818962492933
-0.0023256461444573
-0.0024278291633461
0.23842934592599
0.2217565684697
-4.7121774161477e-05
0.22176761739028
-0.0001427196741447
0.22178605604102
-0.00023832978670945
0.22181170450923
-0.00033311488354679
0.22184433759448
-0.0004266472637804
0.22188381853626
-0.00051918739365773
0.22193012194602
-0.0006111684243222
0.22198329308322
-0.00070288103099021
0.22204340619841
-0.00079442629398375
0.22211055622162
-0.00088589820811914
0.22218485215471
-0.00097732617881457
0.22226642423337
-0.0010688095768134
0.22235539657964
-0.0011602235479006
0.22245189802494
-0.0012515874047756
0.22255602051898
-0.0013425433438766
0.22266788217795
-0.0014332926639864
0.22278755864529
-0.0015233345599683
0.22291522781698
-0.0016134514044574
0.22305098062392
-0.0017026438605953
0.22319511738993
-0.0017926413357797
0.22334767832166
-0.0018809164619969
0.22350912669116
-0.001971192419091
0.22367926892799
-0.0020575001461678
0.22385887363883
-0.0021484023027699
0.22404717691999
-0.0022303278339175
0.22424568169838
-0.0023232177620141
0.22445234239622
-0.0023961955780385
0.22467044260099
-0.0024953828284825
0.22489502240005
-0.0025502259721933
-0.0026663513606723
0.22513354456639
0.20931028612447
-5.0475988034938e-05
0.20932062246494
-0.00015305605643687
0.20933788545798
-0.00025559282152431
0.20936187699862
-0.00035710646573894
0.20939235398819
-0.00045712429427287
0.20942917527413
-0.00055600872013563
0.20947232565434
-0.00065431884434483
0.20952186950724
-0.00075242492328714
0.20957790477227
-0.00085046159760811
0.20964055286537
-0.00094854633933992
0.20970995277754
-0.0010467261282266
0.20978626755461
-0.0011451243906198
0.20986965725976
-0.0012436132888488
0.20996028745614
-0.0013422176364591
0.21005828963255
-0.001440545554629
0.21016382215841
-0.0015388252237327
0.21027700794343
-0.0016365203779431
0.21039807440534
-0.0017345178989284
0.21052717422468
-0.0018317437116273
0.21066466883864
-0.0019301359811244
0.21081067538001
-0.0020269230339611
0.21096572488809
-0.0021262419575431
0.21112971222336
-0.0022214875111004
0.2113034737293
-0.0023221638382408
0.2114863411329
-0.0024131952663978
0.21167988245061
-0.002516759108507
0.21188214568225
-0.0025984588378164
0.21209648556388
-0.0027097227376779
0.21231800134909
-0.0027717417836166
-0.0029026332991462
0.21255428325926
0.1975625163932
-5.3555886094709e-05
0.19757204917273
-0.00016258887311772
0.19758798506875
-0.00027152875474239
0.19761011003487
-0.00037923146897547
0.19763816564486
-0.00048517994095606
0.19767200781414
-0.00058985092590073
0.19771163166137
-0.00069394272756574
0.19775711989284
-0.00079791319054526
0.19780859311717
-0.00090193485715122
0.19786619812121
-0.0010061513783654
0.1979301029691
-0.0011106310104437
0.19800050238401
-0.0012155238395846
0.19807759183982
-0.001320702778008
0.19816157290987
-0.0014261987395616
0.19825261740965
-0.0015315900867025
0.19835092415731
-0.0016371320033848
0.19845666605279
-0.0017422623046364
0.19857012055913
-0.001847972436182
0.19869150739498
-0.0019531305776262
0.1988212489521
-0.0020598775681114
0.19895954910923
-0.0021652232202198
0.19910700417385
-0.0022736970510382
0.19926361589738
-0.0023780992627932
0.19943027942355
-0.002488827392376
0.19960645691318
-0.0025893727833092
0.19979375569717
-0.0027040579195717
0.1999903832529
-0.0027950864199239
0.20019970156076
-0.0029190410712872
0.20041699634262
-0.0029890365899177
-0.0031354773717054
0.20064984038877
0.18647405827831
-5.6336825839393e-05
0.18648271115166
-0.00017124178012796
0.18649719229795
-0.00028600993485296
0.18651727402755
-0.00039931323243698
0.18654268515395
-0.00051059110093979
0.18657327979757
-0.00062044560305562
0.18660906292331
-0.0007297258864964
0.18665013401094
-0.00083898431131642
0.18669663439053
-0.00094843526949427
0.18674873388542
-0.0010582509059403
0.18680662733369
-0.0011685244909292
0.18687053869823
-0.0012794352362547
0.18694069699517
-0.0013908611065592
0.1870173376987
-0.0015028394745698
0.1871006722089
-0.0016149246278006
0.18719093830612
-0.0017273981313163
0.18728836000416
-0.0018396840327387
0.18739326342221
-0.0019528758840581
0.18750593897811
-0.0020658061626482
0.18762686763366
-0.0021808062524961
0.18775634852259
-0.0022947041372276
0.18789503810313
-0.0024123866593528
0.18804306336588
-0.002526124552541
0.18820136573275
-0.002647129785927
0.18836957501121
-0.0027575820876988
0.18854930683159
-0.0028837897655369
0.1887390013094
-0.0029847809225661
0.18894195304504
-0.0031219928310627
0.18915377879707
-0.0032008623648132
-0.0033635628661358
0.18938186426675
0.17600791213489
-5.8800229531323e-05
0.17601562653599
-0.00017895621223554
0.17602855448067
-0.00029893791079257
0.17604645684354
-0.00041721562667738
0.17606905212111
-0.00053318640968869
0.17609619347515
-0.00064758698828487
0.17612789468407
-0.00076142712634398
0.17616426969732
-0.00087535935552347
0.17620547774198
-0.00098964334478916
0.1762517084266
-0.0011044816212274
0.17630318000851
-0.001219996103166
0.17636014183886
-0.0013363970969612
0.17642285311836
-0.0014535724160399
0.17649157972721
-0.0015715661134033
0.17656657045947
-0.0016899153896057
0.17664809893197
-0.0018089266332891
0.1767364395713
-0.0019280247010011
0.17683196372407
-0.0020484000655789
0.17693503424186
-0.0021688767085342
0.177046185776
-0.0022919578144241
0.17716581961466
-0.0024143380029051
0.17729464401363
-0.0025412110849217
0.17743292905475
-0.0026644096194293
0.17758164522936
-0.0027958459858546
0.17774063005379
-0.0029165669365938
0.17791146843993
-0.0030546281756685
0.17809291581098
-0.0031662283167954
0.17828811215554
-0.0033171891980674
0.17849316595714
-0.0034059161876858
-0.0035854848892064
0.17871508795708
0.16612915589199
-6.0934168500334e-05
0.16613589286014
-0.00018569320958027
0.16614720133712
-0.00031024641722905
0.16616283295577
-0.00043284727489458
0.16618249825095
-0.00055285173421621
0.16620604993417
-0.00067113870083061
0.16623350905549
-0.00078888627668887
0.16626500112983
-0.00090685145884025
0.16630069974819
-0.0010253419917961
0.16634081027194
-0.0011445921736171
0.16638557007844
-0.0012647559380048
0.16643524912146
-0.0013860761683789
0.16649013217653
-0.0015084554992335
0.16655051053343
-0.0016319444984962
0.16661666666879
-0.0017560715528535
0.16668890545867
-0.0018811654510594
0.16676754927351
-0.0020066685432941
0.16685300922776
-0.0021338600471267
0.1669457201996
-0.0022615877070332
0.16704626296961
-0.0023925006107236
0.1671551461386
-0.0025232211973606
0.16727311745794
-0.0026591824291642
0.1674006085636
-0.0027919007490318
0.16753859376372
-0.0029338312092572
0.16768716452644
-0.0030651377215984
0.16784782052471
-0.0032152841955644
0.16801972912446
-0.0033381369372651
0.16820577593942
-0.0035032360329711
0.16840273182798
-0.0036028720951843
-0.0037997752680501
0.16861702218607
0.15680482796274
-6.2733467017829e-05
0.15681056859807
-0.00019143387289255
0.15682022449217
-0.00031990233946967
0.1568335401244
-0.00044616293520807
0.15685022025669
-0.00056953189419382
0.15687011744251
-0.00069103591408652
0.15689325809002
-0.00081202695109805
0.15691977593205
-0.00093336932747208
0.15694985484169
-0.001055420927506
0.15698371135662
-0.0011784487144337
0.15702159696048
-0.0013026415673607
0.15706379673042
-0.0014282759637928
0.15711061541006
-0.0015552742041015
0.15716236386857
-0.0016836929823325
0.15721935289124
-0.0018130606006276
0.15728191275719
-0.0019437253421686
0.15735040938074
-0.0020751651916436
0.15742528677978
-0.0022087374708159
0.15750704889904
-0.0023433498503342
0.15759631285188
-0.0024817645871451
0.15769369723522
-0.0026206056033577
0.15779997312768
-0.0027654583435309
0.15791575222165
-0.0029076798637468
0.15804197967728
-0.0030600586846894
0.15817905559307
-0.0032022136559905
0.15832831428119
-0.0033645429013404
0.15848946645232
-0.003499289125034
0.15866497052736
-0.0036787401238253
0.15885252759324
-0.0037904291761149
-0.0040049697643154
0.15905772207271
0.14800381700306
-6.4199565329909e-05
0.14800856202208
-0.00019617891948885
0.14801656438339
-0.00032790472826725
0.14802756355053
-0.00045716212934996
0.14804126067151
-0.00058322904131284
0.14805750820484
-0.00070728347276829
0.14807633576483
-0.00083085453541434
0.14809788179485
-0.00095491538102254
0.14812233605807
-0.0010798752133014
0.14814992133593
-0.001206034014296
0.14818089762555
-0.0013336178783353
0.14821555928902
-0.0014629376484229
0.14825422464903
-0.0015939395849486
0.1482972179591
-0.0017266863132981
0.14834487163294
-0.0018607142951873
0.14839753498129
-0.0019963887113313
0.14845561036712
-0.0021332405979818
0.14851956773466
-0.0022726948587127
0.14858997309599
-0.002413755231402
0.1486674710646
-0.0025592625749243
0.1487527858894
-0.0027059204462744
0.14884669893013
-0.0028593714013594
0.14895000867975
-0.0030109896290603
0.14906360524903
-0.0031736552683347
0.14918824265361
-0.0033268510734036
0.14932500791025
-0.0035013081695125
0.14947431580767
-0.0036485970327457
0.1496379102402
-0.0038423345657648
0.14981487426449
-0.0039673932093966
-0.0041993167109759
0.15000922120053
0.13969675748882
-6.5339820280546e-05
0.13970052569847
-0.00019994715821576
0.13970690354203
-0.00033428260057835
0.13971562752051
-0.00046588613534617
0.1397263970795
-0.00059399862609513
0.13973906443216
-0.00071995084952767
0.13975366014135
-0.00084545026681988
0.139770323919
-0.00097157917928191
0.13978924714556
-0.0010987984588532
0.13981065397169
-0.0012274408582877
0.13983480703571
-0.0013577709591657
0.13986200389767
-0.001490134526689
0.13989256938855
-0.0016245050916644
0.1399268350049
-0.0017609519454596
0.13996514689021
-0.0018990261961422
0.14000786764824
-0.0020391094850889
0.14005542582855
-0.0021807987937595
0.14010831211297
-0.0023255811584214
0.14016714025812
-0.0024725833911906
0.14023258058314
-0.0026247029138722
0.14030544331854
-0.0027787831943642
0.14038652500707
-0.0029404531012521
0.1404767844131
-0.0031012490446861
0.14057706832556
-0.0032739391885965
0.14068845983798
-0.0034382425916242
0.14081181421608
-0.0036246625516108
0.14094828890924
-0.0037850717283122
0.1410988258926
-0.0039928715505684
0.1412641260497
-0.0041326933679102
-0.0043814108288954
0.1414462201647
0.13185593113356
-6.616625421007e-05
0.1318587565119
-0.000202772571845
0.1318635648312
-0.00033909095506689
0.13187009177286
-0.00047241311010661
0.13187803668087
-0.00060194356425907
0.13188725107707
-0.00072916527290433
0.13189776413668
-0.00085596335055099
0.13190971322049
-0.00098352828454471
0.13192328707847
-0.0011123723358305
0.1319387066613
-0.0012428604582738
0.13195623202738
-0.001375296340883
0.13197615805235
-0.0015100605664397
0.13199880897439
-0.0016471560278289
0.13202451722077
-0.0017866602057936
0.13205363422951
-0.0019281432186237
0.1320865304908
-0.0020720057601528
0.13212364819604
-0.0022179165125225
0.13216549568965
-0.0023674286652747
0.13221271235283
-0.0025198000668775
0.13226600095071
-0.0026779915233052
0.13232621823403
-0.0028390004877478
0.13239420986164
-0.0030084447371662
0.13247102100846
-0.0031780601975687
0.13255753870135
-0.0033604568851388
0.13265502372857
-0.0035357276198664
0.1327642715993
-0.0037339104208842
0.13288693910115
-0.0039077392265898
0.13302351778011
-0.0041294502247919
0.13317609032966
-0.0042852659130467
-0.0045499244641979
0.13334460396777
0.12445517399458
-6.6693950232977e-05
0.12445710109163
-0.00020469971953811
0.12446041569052
-0.00034240560587831
0.12446485410405
-0.00047685157307733
0.12447011646602
-0.00060720597157354
0.12447605307626
-0.00073510192410461
0.12448269005274
-0.00086260036366138
0.12449015919367
-0.00099099745833984
0.1244986424247
-0.0011208555964131
0.12450835226698
-0.0012525703276038
0.12451954106204
-0.001386485161032
0.1245324949043
-0.0015230144325716
0.12454753193887
-0.0016621930854032
0.12456497909013
-0.0018041073796935
0.12458518696041
-0.0019483511112204
0.12460852659184
-0.0020953454137718
0.12463544365558
-0.0022448335980697
0.12466645683394
-0.0023984418649543
0.12470221067102
-0.0025555539242662
0.12474344325625
-0.0027192241275224
0.12479101128
-0.0028865685285136
0.12484585694619
-0.0030632904179881
0.12490899590237
-0.0032411991654507
0.12498153711196
-0.0034329981032122
0.12506461084081
-0.003618801353722
0.12515939626459
-0.0038286958463048
0.12526725703723
-0.0040155999979733
0.12538923938667
-0.0042514325714046
0.12552778120158
-0.0044238077255404
-0.0047045323036386
0.12568238904096
0.11746979136414
-6.6941597686576e-05
0.1174708723375
-0.00020578077199659
0.11747278491352
-0.00034431826417451
0.11747526611113
-0.0004793328506326
0.1174780187037
-0.00060995863929094
0.11748089000906
-0.00073797329920849
0.11748390070084
-0.0008656111198898
0.11748717496343
-0.00099427178076425
0.11749088619115
-0.0011245668800842
0.11749523460423
-0.0012569187936635
0.11750045959754
-0.0013917102050628
0.11750683045676
-0.0015293853410133
0.1175146539935
-0.0016700166702911
0.11752424377904
-0.001813697212745
0.11753594803852
-0.0019600554176885
0.11755012740944
-0.002109524831216
0.11756723069739
-0.0022619369318924
0.11758776659646
-0.002418977808917
0.11761238462811
-0.0025801719993796
0.11764183036571
-0.0027486699065104
0.11767695229555
-0.0029216904970534
0.11771877962718
-0.0031051177848887
0.11776822338919
-0.0032906429588826
0.11782676380187
-0.003491538542947
0.11789505907409
-0.0036870966485496
0.11797547338818
-0.0039091101784023
0.1180675723052
-0.0041076989291556
0.11817526975204
-0.0043591300299597
0.11829649722726
-0.0045450352126992
-0.0048474650418021
0.11843942994883
0.11087648063705
-6.6937431774419e-05
0.11087678072426
-0.00020608097762285
0.11087739940329
-0.00034493706632962
0.11087807348535
-0.00048000705352061
0.11087851527647
-0.00061040054598873
0.11087856344597
-0.00073802157835257
0.11087822910634
-0.00086527688415897
0.11087762783261
-0.00099367060606074
0.11087692432242
-0.0011238634648801
0.11087630432756
-0.0012562988907861
0.11087599152949
-0.0013913974966244
0.11087623343483
-0.0015296273344202
0.11087732189103
-0.0016711052132647
0.11087954947994
-0.001815924887594
0.11088326144678
-0.0019637674695337
0.11088879324835
-0.0021150567170047
0.11089660397657
-0.0022697477430428
0.11090715701069
-0.0024295309244927
0.11092113790226
-0.0025941529699965
0.11093922049022
-0.0027667525705569
0.11096233764913
-0.0029448077279133
0.11099143192437
-0.0031342121274167
0.11102749951052
-0.0033267106068398
0.11107208196436
-0.0035361210530773
0.11112556840595
-0.0037405831404803
0.11119158805509
-0.0039751298720399
0.11126742661852
-0.0041835375316728
0.11136294239692
-0.004454645844047
0.11146242076203
-0.0046445136130936
-0.0049817825501792
0.11159673822704
0.10465325183622
-6.6723434516264e-05
0.1046528610657
-0.00020569036733711
0.10465230013892
-0.00034437630284837
0.10465133295507
-0.0004790400300536
0.10464969615729
-0.00060876390326495
0.1046471876445
-0.00073551321477271
0.10464381042836
-0.00086189981180952
0.10463967744292
-0.00098953775988478
0.10463494688127
-0.0011191330389508
0.10462978560228
-0.0012511377447967
0.10462439408908
-0.0013860061144264
0.10461899393037
-0.0015242273051217
0.10461386033432
-0.0016659717453937
0.10460926857633
-0.001811333256578
0.10460556432622
-0.0019600633452641
0.10460305175884
-0.0021125442739742
0.10460220214615
-0.0022688982529912
0.10460339815316
-0.0024307270515398
0.10460739203734
-0.0025981469708831
0.10461468117526
-0.0027740418203897
0.10462645161782
-0.0029565782766892
0.10464321524151
-0.003150975850305
0.10466666765241
-0.003350163109795
0.10469725933155
-0.0035667128167285
0.10473695640515
-0.0037802802912916
0.10478705685569
-0.0040252303919955
0.10484799301007
-0.0042444737487352
0.1049282548989
-0.0045349077908023
0.10501455300873
-0.004730811780302
-0.0051042859757489
0.10513705636356
0.098779298505608
-6.6303838526029e-05
0.098778331048594
-0.0002047230979617
0.09877665468689
-0.00034270013002079
0.098774186227968
-0.00047657175682236
0.098770757548931
-0.00060533540512008
0.098765958715624
-0.00073071455749859
0.098759858009164
-0.000855799277098
0.098752558819648
-0.00098223873888125
0.098744208084332
-0.001110782469721
0.098734959233715
-0.0012418890586872
0.098724990008416
-0.0013760370523734
0.098714481589365
-0.0015137190484686
0.098703675584068
-0.0016551659015023
0.098692828536163
-0.0018004863692224
0.098682285517184
-0.0019495204855009
0.098672333351236
-0.0021025922657816
0.098663445775794
-0.0022600108328728
0.098655935613877
-0.0024232170417684
0.098650595414124
-0.002592806918262
0.098647733508952
-0.0027711800558551
0.09864879441293
-0.0029576393126731
0.098653727761891
-0.0031559093217882
0.098665259661637
-0.0033616951218232
0.098681928101508
-0.0035833813591379
0.098709253466445
-0.0038076057489538
0.098741773839064
-0.0040577508476409
0.098790664494116
-0.0042933644780015
0.098842883547949
-0.0045871269140878
0.098919770578549
-0.0048076988828783
0.099061563601925
-0.0052460790865857
0.39467431593798
0.0046430053509552
0.39019073557514
0.0044835803130871
0.38587109666388
0.0043196388619466
0.38171980185259
0.0041512947616367
0.37774111105206
0.0039786907504777
0.3739391445545
0.0038019664466505
0.37031787711788
0.0036212673850685
0.36688112866924
0.0034367483960874
0.36363255668634
0.003248571929654
0.36057565132171
0.0030569053103814
0.35771373151127
0.0028619197555472
0.35504994114344
0.0026637903119673
0.3525872448945
0.0024626961925275
0.35032842396709
0.0022588208701086
0.34827607186873
0.0020523520406235
0.3464325905109
0.0018434812992795
0.34480018647179
0.0016324039802581
0.34338086760385
0.0014193188083756
0.34217643959633
0.0012044279477498
0.34118850258716
0.00098793694874413
0.3404184466978
0.0007700558287963
0.33986744600178
0.00055100063481676
0.33953644451567
0.00033100142480125
0.33942609184942
0.00011035260425487
0.33953706768523
-0.00011097589791779
0.33986973062618
-0.00033266300376987
0.34042406405848
-0.00055433349525408
0.34119990403383
-0.00077584003904218
0.34219686230332
-0.00099695833326777
0.34341431719157