/*--------------------------------*- C++ -*----------------------------------*\
| =========                 |                                                 |
| \\      /  F ield         | OpenFOAM: The Open Source CFD Toolbox           |
|  \\    /   O peration     | Version:  2112                                  |
|   \\  /    A nd           | Website:  www.openfoam.com                      |
|    \\/     M anipulation  |                                                 |
\*---------------------------------------------------------------------------*/
FoamFile
{
    version     2.0;
    format      ascii;
    arch        "LSB;label=32;scalar=64";
    class       volVectorField;
    location    "18.8";
    object      U;
}
// * * * * * * * * * * * * * * * * * * * * * * * * * * * * * * * * * * * * * //

dimensions      [0 1 -1 0 0 0 0];

internalField   nonuniform List<vector> 
22000
(
(1.0000010350312 -2.5865491339402e-05 0)
(1.0000267738363 -7.7586789958868e-05 0)
(1.0000762688786 -0.00012934319777761 0)
(1.000150788118 -0.00018109622899268 0)
(1.0002507854788 -0.00023270812733707 0)
(1.0003761614236 -0.000284059971532 0)
(1.0005266045368 -0.00033507444429132 0)
(1.0007017956657 -0.00038571602597407 0)
(1.0009014774254 -0.00043596127057041 0)
(1.0011254639764 -0.00048581436839656 0)
(1.0013735870367 -0.00053525516155497 0)
(1.0016456861563 -0.00058428982766136 0)
(1.0019415544256 -0.00063285224776473 0)
(1.0022609845456 -0.00068094657993689 0)
(1.002603695032 -0.00072844067724006 0)
(1.0029694427433 -0.00077540192938507 0)
(1.0033578702459 -0.00082160867150347 0)
(1.0037687378401 -0.00086729917398492 0)
(1.0042015978002 -0.00091202413880438 0)
(1.0046562634596 -0.00095636488045112 0)
(1.0051321217569 -0.00099930742998477 0)
(1.0056291017838 -0.0010422139886755 0)
(1.0061462620725 -0.0010828106081377 0)
(1.0066838010163 -0.0011243085081066 0)
(1.0072401743046 -0.0011616071884722 0)
(1.007816206953 -0.0012021902517869 0)
(1.0084092561094 -0.0012345119324021 0)
(1.0090214752983 -0.0012758052454425 0)
(1.0096482094218 -0.0012998123902028 0)
(1.0102943230284 -0.0013459394535688 0)
(1.0000004800746 -7.6117140680208e-05 0)
(1.0000262031169 -0.00022854251284994 0)
(1.0000759943481 -0.00038123746677315 0)
(1.0001510428457 -0.00053400163754212 0)
(1.000251820016 -0.000686377223856 0)
(1.0003782754507 -0.00083800696149069 0)
(1.0005301317267 -0.00098867442302703 0)
(1.0007070904904 -0.0011382827702919 0)
(1.0009088942017 -0.0012867646653402 0)
(1.0011353692115 -0.0014341311506444 0)
(1.0013863409752 -0.0015803235108601 0)
(1.0016616773851 -0.001725358312755 0)
(1.0019611550371 -0.0018690402518849 0)
(1.0022846180158 -0.0020113729058678 0)
(1.002631732255 -0.0021519657012979 0)
(1.0030023496757 -0.0022910049163115 0)
(1.0033959860698 -0.0024278505555562 0)
(1.0038126024288 -0.0025631894012626 0)
(1.004251473808 -0.0026957362255107 0)
(1.004712848114 -0.002827160385256 0)
(1.005195505145 -0.0029545560272256 0)
(1.005700305534 -0.003081813178267 0)
(1.00622497572 -0.0032024235211652 0)
(1.0067717119728 -0.003325538203196 0)
(1.0073360763991 -0.0034366085021946 0)
(1.0079231761301 -0.0035569229415909 0)
(1.0085241769338 -0.0036536594991251 0)
(1.0091503389023 -0.0037757345527883 0)
(1.0097839740932 -0.0038487208311478 0)
(1.0104492550927 -0.0039841887008858 0)
(1.0000005025534 -0.0001243031057054 0)
(1.0000272072729 -0.00037353240907241 0)
(1.0000788179141 -0.00062336957995459 0)
(1.000156431052 -0.0008733400445048 0)
(1.0002604187665 -0.0011226261642186 0)
(1.0003906816681 -0.0013706704937837 0)
(1.0005469326166 -0.001617173173309 0)
(1.0007288929694 -0.0018620109246658 0)
(1.0009363122286 -0.0021050849197121 0)
(1.0011690416666 -0.0023464180686728 0)
(1.0014269005165 -0.0025859166080704 0)
(1.0017097993307 -0.0028236131795141 0)
(1.0020174899571 -0.0030591817286349 0)
(1.0023498939878 -0.0032926242868909 0)
(1.0027065980619 -0.0035232808390609 0)
(1.0030875999112 -0.0037514621277415 0)
(1.0034922197775 -0.0039761034946105 0)
(1.0039207312817 -0.0041983720933679 0)
(1.0043719729533 -0.0044161370318287 0)
(1.0048468835286 -0.0046322169934244 0)
(1.0053432655579 -0.0048417630532556 0)
(1.0058634961536 -0.0050513034834742 0)
(1.0064031014844 -0.0052499451057155 0)
(1.0069676150985 -0.0054530182094569 0)
(1.0075476795783 -0.0056361600541987 0)
(1.0081557566795 -0.0058350240102668 0)
(1.0087721489412 -0.0059946495963454 0)
(1.0094242478698 -0.0061969564480988 0)
(1.0100707122216 -0.0063173176012525 0)
(1.0107712168887 -0.0065425766175931 0)
(1.0000005113963 -0.00017143832917865 0)
(1.00002829137 -0.00051546781806798 0)
(1.0000820106247 -0.00086033783193509 0)
(1.0001627492304 -0.0012051996812326 0)
(1.0002707894205 -0.001548877667576 0)
(1.0004059546226 -0.001890706088988 0)
(1.0005679191778 -0.0022303990135947 0)
(1.0007564154728 -0.0025678654449308 0)
(1.0009711987187 -0.0029029985256508 0)
(1.0012121574815 -0.0032358465359237 0)
(1.0014791065446 -0.0035662899028445 0)
(1.0017720190808 -0.0038943908356967 0)
(1.002090615181 -0.0042196916763013 0)
(1.0024349266385 -0.0045421968924676 0)
(1.0028044328471 -0.0048609593019264 0)
(1.0031993378691 -0.00517642862144 0)
(1.0036186941289 -0.0054870973016558 0)
(1.0040632147172 -0.0057946680422808 0)
(1.0045311356573 -0.0060961295503506 0)
(1.0050243626443 -0.0063955590745751 0)
(1.0055393420532 -0.0066860515970768 0)
(1.0060805703618 -0.0069769807422254 0)
(1.0066405105261 -0.0072527740688527 0)
(1.0072293597025 -0.00753538640322 0)
(1.0078308993852 -0.007789955891081 0)
(1.0084678764024 -0.0080675122469919 0)
(1.0091054357166 -0.0082893929953045 0)
(1.0097935440829 -0.0085728381952254 0)
(1.0104578587894 -0.0087394518978927 0)
(1.0112077318512 -0.009056664714169 0)
(1.0000005191389 -0.00021770519121454 0)
(1.0000294978109 -0.00065500761214925 0)
(1.0000855842308 -0.0010933149974558 0)
(1.0001698464467 -0.0015312434902434 0)
(1.0002824677574 -0.0019672445528137 0)
(1.0004231843771 -0.002400655760053 0)
(1.0005916258768 -0.0028313279917381 0)
(1.0007875393024 -0.0032592766517773 0)
(1.0010106890393 -0.0036844160890613 0)
(1.0012610146778 -0.0041068371435546 0)
(1.0015383318351 -0.0045264069639622 0)
(1.0018426992094 -0.0049432352540167 0)
(1.0021738049301 -0.0053567317273257 0)
(1.0025318259384 -0.0057669074436811 0)
(1.0029161154392 -0.0061725040630463 0)
(1.0033271425897 -0.0065741277224785 0)
(1.0037636339361 -0.0069698043364338 0)
(1.0042268597345 -0.0073618433373636 0)
(1.0047143144287 -0.0077463085468037 0)
(1.0052291213952 -0.0081286762566129 0)
(1.0057660464298 -0.0084998374445754 0)
(1.0063322454174 -0.0088722765775839 0)
(1.0069163683862 -0.0092253568750251 0)
(1.0075344542216 -0.0095882334169259 0)
(1.0081617225951 -0.0099146521772971 0)
(1.0088337970411 -0.010272339133286 0)
(1.0094968754835 -0.010556896794156 0)
(1.0102291781159 -0.010923926129292 0)
(1.0109150687298 -0.011136628681529 0)
(1.0117260583603 -0.011550004493818 0)
(1.0000005244523 -0.00026316015380217 0)
(1.0000307474475 -0.00079236728101113 0)
(1.0000893025389 -0.0013226971846485 0)
(1.0001772366548 -0.0018520471343176 0)
(1.0002946155554 -0.002378471588638 0)
(1.0004410778295 -0.0029014326677728 0)
(1.0006162083443 -0.0034210558990828 0)
(1.0008197793176 -0.0039375473899616 0)
(1.0010515735234 -0.0044508765109315 0)
(1.0013115980696 -0.0049611965290639 0)
(1.0015996786191 -0.0054683759996906 0)
(1.0019159839178 -0.0059725925286143 0)
(1.0022601760314 -0.0064731224618357 0)
(1.0026326127487 -0.0069699877624805 0)
(1.0030325120789 -0.0074615924129408 0)
(1.0034606643622 -0.0079487182016909 0)
(1.0039154292087 -0.0084288997373782 0)
(1.0043987402059 -0.0089051330285467 0)
(1.0049072423109 -0.0093725103548059 0)
(1.0054454953032 -0.0098380631705218 0)
(1.0060063216706 -0.010290316612165 0)
(1.00659999898 -0.010745159400671 0)
(1.0072107423225 -0.011176463579468 0)
(1.0078614357234 -0.011621223472569 0)
(1.0085173021612 -0.012020797497547 0)
(1.0092290466027 -0.012461081797139 0)
(1.0099207035115 -0.012809662905073 0)
(1.0107035833256 -0.013263918251109 0)
(1.011413707708 -0.013523405891764 0)
(1.0122954314703 -0.014038578903333 0)
(1.0000005250264 -0.00030772964368582 0)
(1.0000319406662 -0.0009273512745429 0)
(1.0000928791597 -0.0015481714587699 0)
(1.0001843547837 -0.0021671729015273 0)
(1.0003062974743 -0.0027819887389346 0)
(1.0004582392947 -0.0033923376104603 0)
(1.0006397233107 -0.0039987694129451 0)
(1.0008505600951 -0.0046017729654931 0)
(1.0010905635722 -0.0052014108065133 0)
(1.0013598267935 -0.0057979216489275 0)
(1.0016581985063 -0.0063911935055725 0)
(1.0019859830801 -0.0069814952168488 0)
(1.0023428283221 -0.0075679713479048 0)
(1.0027293083192 -0.0081506599223044 0)
(1.0031445069081 -0.0087276019607928 0)
(1.003589587566 -0.0092997752973121 0)
(1.0040625199188 -0.009864202444021 0)
(1.004565993259 -0.010424649574704 0)
(1.0050957293391 -0.010975197254643 0)
(1.0056579071776 -0.011524591641788 0)
(1.0062432108718 -0.012058835092588 0)
(1.0068654188354 -0.012597514577539 0)
(1.007503828048 -0.013108584039168 0)
(1.0081889823102 -0.013637517214998 0)
(1.0088749696816 -0.014112276975766 0)
(1.0096293683366 -0.01463842016089 0)
(1.0103514599234 -0.015053185454468 0)
(1.0111895897236 -0.015599217120073 0)
(1.0119257349985 -0.0159070240185 0)
(1.0128858505378 -0.016530655269496 0)
(1.0000005191906 -0.00035122374177719 0)
(1.0000329797568 -0.0010594047187166 0)
(1.0000960308058 -0.0017688206523898 0)
(1.0001906419825 -0.0024753384383795 0)
(1.0003165919002 -0.0031761485414692 0)
(1.0004732999428 -0.0038713672526881 0)
(1.0006602723072 -0.004562127811437 0)
(1.0008773718029 -0.0052492997918391 0)
(1.0011244581706 -0.0059330811461173 0)
(1.0014017297727 -0.0066138221193064 0)
(1.0017090750745 -0.0072914521055335 0)
(1.002046960144 -0.0079663573279376 0)
(1.0024150360171 -0.0086375559287801 0)
(1.0028141272684 -0.0093051082041832 0)
(1.0032431947237 -0.0099666711187754 0)
(1.0037038216323 -0.010623439027779 0)
(1.0041935836118 -0.011271909520454 0)
(1.0047160026655 -0.011916701288129 0)
(1.0052658402881 -0.012550856584415 0)
(1.0058510389126 -0.013184987956469 0)
(1.0064600229579 -0.01380243912322 0)
(1.0071103598361 -0.014426766571344 0)
(1.0077760978103 -0.015019614742562 0)
(1.0084960553104 -0.015635528344703 0)
(1.0092123610127 -0.016188130998311 0)
(1.010010820792 -0.01680403901851 0)
(1.0107640421065 -0.017287925074427 0)
(1.0116603999112 -0.017931035000541 0)
(1.0124235410651 -0.018289606634627 0)
(1.0134677447763 -0.019029194856421 0)
(1.0000005053001 -0.00039336792770681 0)
(1.0000337722472 -0.0011877099283023 0)
(1.0000984884142 -0.0019832877704881 0)
(1.0001955675885 -0.002774651637312 0)
(1.0003246259681 -0.0035585319455857 0)
(1.0004849667589 -0.004335589785072 0)
(1.0006760650988 -0.0051077065463882 0)
(1.0008978494866 -0.0058762345541181 0)
(1.0011502413302 -0.0066415527522242 0)
(1.0014335637376 -0.0074041512491035 0)
(1.0017477642977 -0.0081640263668615 0)
(1.0020934961049 -0.0089217099108425 0)
(1.0024704357578 -0.0096761036842625 0)
(1.0028796898558 -0.010427297343899 0)
(1.0033201171466 -0.011172549723187 0)
(1.0037937603935 -0.011913291228418 0)
(1.0042978166699 -0.012645494095956 0)
(1.0048367000585 -0.013374706161571 0)
(1.0054042134557 -0.014092926316676 0)
(1.0060101646026 -0.014812766722982 0)
(1.0066406746509 -0.015514815071964 0)
(1.0073172931827 -0.016226823044415 0)
(1.008008648166 -0.016903807516685 0)
(1.0087622343134 -0.01760987664995 0)
(1.0095077331074 -0.018243514943804 0)
(1.0103500695904 -0.01895359517718 0)
(1.0111339550426 -0.019510287290577 0)
(1.0120897966587 -0.020256376544676 0)
(1.0128801098868 -0.020669147590795 0)
(1.0140121041399 -0.021532817034949 0)
(1.0000004819947 -0.00043383574952466 0)
(1.0000342360269 -0.0013112865835502 0)
(1.0001000107478 -0.0021899440976346 0)
(1.0001986556216 -0.0030628443743402 0)
(1.0003296173616 -0.0039262446187387 0)
(1.000492080293 -0.0047815008601004 0)
(1.0006854940791 -0.0056314095980684 0)
(1.0009098655318 -0.0064779091836661 0)
(1.0011651944077 -0.0073216074365875 0)
(1.0014519470227 -0.008163164272425 0)
(1.0017701508786 -0.00900267216954 0)
(1.0021206689703 -0.0098408382270346 0)
(1.0025032294352 -0.010676463733362 0)
(1.0029192482916 -0.011509675566651 0)
(1.0033675121099 -0.01233733014703 0)
(1.0038505543999 -0.013161111594225 0)
(1.0043652282308 -0.013976483061929 0)
(1.0049168796205 -0.014789988257786 0)
(1.0054983934015 -0.015592606975294 0)
(1.0061214996488 -0.016399055851461 0)
(1.0067700528639 -0.017187124461112 0)
(1.0074696763714 -0.017988918397396 0)
(1.0081835732988 -0.018752618157306 0)
(1.0089680969901 -0.0195522415289 0)
(1.0097403364433 -0.020270553580406 0)
(1.0106247516876 -0.021079573114016 0)
(1.0114376627527 -0.021713471837684 0)
(1.0124524881414 -0.022568886602786 0)
(1.0132693400991 -0.023040343981992 0)
(1.0144908045265 -0.024036633733053 0)
(1.000000448942 -0.00047227974423366 0)
(1.0000343033486 -0.0014290847017329 0)
(1.0001003991087 -0.0023870391238069 0)
(1.0001995143773 -0.0033374761762244 0)
(1.0003309172656 -0.0042761733149623 0)
(1.0004936696365 -0.0052053318135967 0)
(1.0006872025325 -0.0061288280245647 0)
(1.0009116136809 -0.0070492877647912 0)
(1.0011669978729 -0.0079675966503994 0)
(1.0014539806927 -0.0088846151608287 0)
(1.0017726905323 -0.0098005647719041 0)
(1.0021242194649 -0.010716358578287 0)
(1.0025083753869 -0.011630719774741 0)
(1.0029269052269 -0.012543820812002 0)
(1.0033785606267 -0.013452123481533 0)
(1.0038663867229 -0.014357580254276 0)
(1.00438694478 -0.015255181855862 0)
(1.0049465311216 -0.016152520584796 0)
(1.0055371908966 -0.017039617793377 0)
(1.0061725865834 -0.017933361865153 0)
(1.0068344214433 -0.018808773320291 0)
(1.0075523829706 -0.019702383557349 0)
(1.0082844092645 -0.020555471525961 0)
(1.009095671866 -0.021452119970121 0)
(1.009890872843 -0.022259086083091 0)
(1.0108139435846 -0.023172018156728 0)
(1.0116530437749 -0.023888188698881 0)
(1.0127245641186 -0.024859553730556 0)
(1.0135664736956 -0.025395282930014 0)
(1.0148770271596 -0.02653293231621 0)
(1.0000004050965 -0.00050835539988421 0)
(1.0000339213403 -0.0015400525936332 0)
(1.00009950329 -0.0025728146006421 0)
(1.0001978422411 -0.0035960979497312 0)
(1.0003280177613 -0.0046052007949544 0)
(1.0004889680599 -0.0056033150743351 0)
(1.0006801142713 -0.0065955543234805 0)
(1.0009016563072 -0.0075853282477651 0)
(1.0011537991606 -0.0085738488757213 0)
(1.0014373397628 -0.0095622078495889 0)
(1.0017525266721 -0.010550791566206 0)
(1.0021006948337 -0.011540749726185 0)
(1.0024817607626 -0.012530756773941 0)
(1.0028978163241 -0.013521039138691 0)
(1.0033476206288 -0.014507685687473 0)
(1.0038347391308 -0.015492927629763 0)
(1.0043555084967 -0.016471343371481 0)
(1.0049171709625 -0.017451608699923 0)
(1.0055110448038 -0.018422889865561 0)
(1.0061526877483 -0.01940426833049 0)
(1.0068218422791 -0.020368110336746 0)
(1.00755214877 -0.021355340193637 0)
(1.0082966009496 -0.022300445859261 0)
(1.0091289329738 -0.023297498711511 0)
(1.0099419993789 -0.024197320600463 0)
(1.0108986756927 -0.025219172442421 0)
(1.0117599042999 -0.026023270202055 0)
(1.0128840163326 -0.027117301931804 0)
(1.0137485847304 -0.02772400871537 0)
(1.015145756128 -0.029011723701777 0)
(1.0000003506509 -0.00054174105008513 0)
(1.0000330550695 -0.0016431991850628 0)
(1.0000972168587 -0.0027456131438346 0)
(1.0001934221957 -0.0038364074479348 0)
(1.000320554037 -0.0049104058056092 0)
(1.0004774279575 -0.0059719264150402 0)
(1.0006634636254 -0.0070274657256229 0)
(1.0008789708072 -0.0080813059969226 0)
(1.0011242761649 -0.0091350324410962 0)
(1.0014003545979 -0.010189996886787 0)
(1.0017075914507 -0.011246788652449 0)
(1.0020475718557 -0.012306823535786 0)
(1.0024203481711 -0.013368763503921 0)
(1.0028283620785 -0.014432896719314 0)
(1.0032704253931 -0.015494975960472 0)
(1.0037506191708 -0.016557516085754 0)
(1.0042651342882 -0.017614768971282 0)
(1.0048221307781 -0.01867650738547 0)
(1.0054123424856 -0.01973119356928 0)
(1.0060531387636 -0.020800070009037 0)
(1.0067225585711 -0.021853061923365 0)
(1.0074579890307 -0.022935332815993 0)
(1.0082079457703 -0.023974895329611 0)
(1.0090542653954 -0.025075464239176 0)
(1.0098788131768 -0.026072424134137 0)
(1.0108624440742 -0.027208044522463 0)
(1.0117404879448 -0.028106212801794 0)
(1.012911263119 -0.029329504704418 0)
(1.0137950861638 -0.030015003349288 0)
(1.0152742894805 -0.031461191058331 0)
(1.0000002858224 -0.00057215748791864 0)
(1.0000316859938 -0.0017376570041412 0)
(1.0000934803827 -0.0029039814639076 0)
(1.0001861315664 -0.0040563875970773 0)
(1.0003083203725 -0.0051892335741006 0)
(1.0004587410908 -0.0063080867638545 0)
(1.0006368189291 -0.0074209572843701 0)
(1.0008429773284 -0.0085330784919408 0)
(1.0010776721363 -0.0096464522280543 0)
(1.0013420566125 -0.010762716522291 0)
(1.00163666451 -0.011882702413675 0)
(1.0019633302046 -0.013008118596588 0)
(1.0023222659672 -0.01413765711375 0)
(1.0027162579901 -0.015271674117747 0)
(1.0031442158968 -0.01640563859136 0)
(1.0036107172096 -0.017542347014978 0)
(1.0041118934456 -0.018675837405774 0)
(1.0046567705628 -0.019816968318783 0)
(1.0052356632744 -0.020953700432193 0)
(1.005867624714 -0.022109345220673 0)
(1.0065293041755 -0.023251709246667 0)
(1.0072615400954 -0.024429906405465 0)
(1.0080089658471 -0.02556602115327 0)
(1.0088608767361 -0.026772763305184 0)
(1.0096892849392 -0.027871064926869 0)
(1.0106916682869 -0.029124930135981 0)
(1.0115799518925 -0.030123667843639 0)
(1.0127896520891 -0.031482449883183 0)
(1.0136882214589 -0.032255608903714 0)
(1.0152427568941 -0.0338680860492 0)
(1.0000002115193 -0.00059938243098518 0)
(1.0000298120245 -0.0018227246010122 0)
(1.0000882835361 -0.0030467396423538 0)
(1.0001759462359 -0.0042544027719733 0)
(1.0002912742687 -0.0054396188726944 0)
(1.0004328428368 -0.0066093116044843 0)
(1.0006000879545 -0.0077731173915389 0)
(1.0007935458559 -0.008937286876602 0)
(1.0010138042504 -0.010104277328069 0)
(1.0012621885561 -0.011276035098851 0)
(1.001539387277 -0.012453671446947 0)
(1.0018474741917 -0.013639210676391 0)
(1.0021868396102 -0.014831422358159 0)
(1.0025605976918 -0.016030734054534 0)
(1.0029677985148 -0.017232398225341 0)
(1.0034134819518 -0.018439482596769 0)
(1.0038938097752 -0.019645950750604 0)
(1.0044185986083 -0.020863708173649 0)
(1.0049779251584 -0.022080469858664 0)
(1.0055923568732 -0.023321458138243 0)
(1.0062375111266 -0.024552801349933 0)
(1.0069573031595 -0.025827125660869 0)
(1.0076931862189 -0.027061391619493 0)
(1.0085411051091 -0.028376316266901 0)
(1.0093646005916 -0.029579913106291 0)
(1.0103760723085 -0.030955892748409 0)
(1.0112667582361 -0.032061891781618 0)
(1.0125058847468 -0.033561763714921 0)
(1.0134134922335 -0.034432416609667 0)
(1.0150345708751 -0.036218056604003 0)
(1.0000001284647 -0.00062325856459613 0)
(1.0000274480899 -0.001897891875496 0)
(1.0000816637683 -0.0031730249468157 0)
(1.0001629349713 -0.0044292604885868 0)
(1.0002695275838 -0.0056600647971629 0)
(1.0003998997966 -0.0068738069670541 0)
(1.0005535012268 -0.0080818416757303 0)
(1.000730975304 -0.009291489079531 0)
(1.0009330388477 -0.010505694632921 0)
(1.0011611764703 -0.011726730264631 0)
(1.0014162316821 -0.012956024352069 0)
(1.0017004991194 -0.014195934789881 0)
(1.0020145586913 -0.015445359491674 0)
(1.0023618239169 -0.01670479689549 0)
(1.0027415222545 -0.017969362972445 0)
(1.0031591069223 -0.019242376740744 0)
(1.0036108588614 -0.02051789189835 0)
(1.0041072870995 -0.021808791977819 0)
(1.0046384207374 -0.023102855927557 0)
(1.0052261319415 -0.024426986700844 0)
(1.0058453986331 -0.025746201494625 0)
(1.0065427608446 -0.027116033322671 0)
(1.0072572888123 -0.028449412907204 0)
(1.008090613435 -0.02987368382221 0)
(1.0088993951855 -0.031186117205881 0)
(1.0099089527763 -0.032687203312511 0)
(1.0107929755066 -0.033907195699482 0)
(1.0120503497802 -0.035552786877763 0)
(1.0129600093313 -0.036531611896027 0)
(1.0146367886679 -0.03849607994317 0)
(1.0000000382238 -0.00064369725536673 0)
(1.0000246231109 -0.0019628530441111 0)
(1.0000737002299 -0.0032823133058973 0)
(1.0001472506996 -0.0045802410595683 0)
(1.0002433313766 -0.0058496802881061 0)
(1.000360286589 -0.0071005150000181 0)
(1.0004975802291 -0.0083458879328628 0)
(1.0006559523066 -0.0095942261362269 0)
(1.0008362403234 -0.010848988614313 0)
(1.0010400684868 -0.012112784480236 0)
(1.0012684289968 -0.013387392587257 0)
(1.0015238105812 -0.014675517415245 0)
(1.0018069869675 -0.015976237343381 0)
(1.0021216317162 -0.017290117824553 0)
(1.0024671791463 -0.018612227395919 0)
(1.0028494311564 -0.019946106841038 0)
(1.0032648728789 -0.021286084340873 0)
(1.0037245838913 -0.022645922826177 0)
(1.0042187427534 -0.024013825144189 0)
(1.0047702715498 -0.025418068004767 0)
(1.0053539390046 -0.026823260287058 0)
(1.0060183606722 -0.028287039719977 0)
(1.0067011448781 -0.029719751448084 0)
(1.0075084162117 -0.031253473048528 0)
(1.008291883823 -0.03267776640175 0)
(1.0092872689234 -0.034305749190288 0)
(1.0101545298509 -0.035646356863412 0)
(1.0114173140785 -0.037441047848528 0)
(1.0123207013214 -0.038539180299874 0)
(1.0140403171855 -0.040686456912692 0)
(0.99999994194081 -0.00066067822425733 0)
(1.0000213797137 -0.0020175070403966 0)
(1.00006450962 -0.0033744217516644 0)
(1.0001291174927 -0.0047071010510262 0)
(1.0002130543251 -0.0060081833193839 0)
(1.0003145539657 -0.0072891169336782 0)
(1.0004330923883 -0.0085648796220645 0)
(1.0005694917554 -0.0098450283634804 0)
(1.0007246965419 -0.011133553034955 0)
(1.0009004453375 -0.01243340595612 0)
(1.0010978652299 -0.013746743325156 0)
(1.0013196044458 -0.015076624226325 0)
(1.0015666264307 -0.016422356678167 0)
(1.0018428166347 -0.017784568970873 0)
(1.002147837681 -0.019158374055378 0)
(1.0024877618725 -0.020547501150423 0)
(1.0028593573561 -0.021946744342778 0)
(1.0032741251831 -0.023370626711256 0)
(1.0037226026231 -0.024808167868488 0)
(1.0042284387413 -0.026288648112062 0)
(1.0047667076191 -0.027777090467816 0)
(1.0053873419525 -0.029332244954084 0)
(1.0060277514941 -0.03086366275108 0)
(1.0067966870678 -0.032505734339973 0)
(1.0075439966314 -0.034044258119011 0)
(1.0085113138984 -0.035799409386462 0)
(1.009351739974 -0.037267312606016 0)
(1.0106045649887 -0.039212140651062 0)
(1.0114928838005 -0.040442120991759 0)
(1.0132406822623 -0.042773126179924 0)
(0.99999984171845 -0.00067424480266801 0)
(1.0000177686473 -0.0020619454245254 0)
(1.0000542351874 -0.0034494905978145 0)
(1.0001088162194 -0.0048100524450859 0)
(1.0001791600673 -0.0061358781909556 0)
(1.0002633945408 -0.0074400077253708 0)
(1.0003610028693 -0.0087392774313254 0)
(1.0004728708229 -0.010044383366879 0)
(1.0006000319378 -0.011359855373302 0)
(1.0007443113054 -0.012688991641579 0)
(1.0009069506854 -0.01403434553885 0)
(1.0010907170463 -0.015399335951897 0)
(1.0012967481712 -0.016783539465645 0)
(1.0015290862239 -0.018187646696723 0)
(1.001787632903 -0.019606896202702 0)
(1.0020786442351 -0.021045184001771 0)
(1.0023992422528 -0.022497940613821 0)
(1.0027611730917 -0.023980346838516 0)
(1.0031555580224 -0.025482600258327 0)
(1.0036063585797 -0.02703464362928 0)
(1.0040896010143 -0.028602710985719 0)
(1.004655471541 -0.030245698101238 0)
(1.0052429446279 -0.031874186295416 0)
(1.0059606009631 -0.033622336196143 0)
(1.0066610198977 -0.03527657052289 0)
(1.0075846898158 -0.037157478477789 0)
(1.0083890727193 -0.038759395303079 0)
(1.0096124987336 -0.040852557422711 0)
(1.0104818870502 -0.042229091588254 0)
(1.0122292232945 -0.044739074189141 0)
(0.99999973887201 -0.00068449399656115 0)
(1.0000138434012 -0.0020964243757618 0)
(1.0000430297781 -0.0035079406723799 0)
(1.0000866516767 -0.004889707125063 0)
(1.0001421641367 -0.006233590654792 0)
(1.0002075907843 -0.0075542270629354 0)
(1.000282411727 -0.0088703124304931 0)
(1.0003675539595 -0.010193676456712 0)
(1.0004641170781 -0.011529385812271 0)
(1.0005739808163 -0.012881079369499 0)
(1.0006984769959 -0.014251719713921 0)
(1.0008404503989 -0.015645094003818 0)
(1.0010011894949 -0.017061077275084 0)
(1.001184834149 -0.018500433451284 0)
(1.0013915187254 -0.019958580928223 0)
(1.0016275969845 -0.021439590367761 0)
(1.0018905902898 -0.022939631884138 0)
(1.0021923197394 -0.024474523257108 0)
(1.0025246690122 -0.02603584998781 0)
(1.0029115189563 -0.02765408574899 0)
(1.003330402282 -0.02929716356094 0)
(1.0038308102328 -0.031023604374425 0)
(1.0043547613294 -0.032746274833314 0)
(1.0050083954241 -0.034597359638438 0)
(1.0056505642235 -0.036367242540235 0)
(1.0065151858035 -0.038371729951204 0)
(1.007272824787 -0.040112504053111 0)
(1.008446928727 -0.04235116204346 0)
(1.009291900579 -0.043888729197401 0)
(1.0110114426194 -0.046570660373884 0)
(0.99999963478292 -0.00069156569843409 0)
(1.0000096501214 -0.0021213252830497 0)
(1.0000310316223 -0.0035504025476318 0)
(1.0000629157631 -0.0049469760418767 0)
(1.0001025794544 -0.0063025394587841 0)
(1.0001479385463 -0.0076333032197307 0)
(1.0001984539772 -0.0089598058026364 0)
(1.0002550706027 -0.010294997065786 0)
(1.0003189356907 -0.011644472745219 0)
(1.0003919421957 -0.013012193196957 0)
(1.0004754770045 -0.014401523594015 0)
(1.0005724089785 -0.015816612080744 0)
(1.0006841553172 -0.017257655374251 0)
(1.0008148932092 -0.018725514327365 0)
(1.0009649824426 -0.020215828044485 0)
(1.0011407912018 -0.021732879900993 0)
(1.0013402522927 -0.023273606049156 0)
(1.0015751296758 -0.024854540695935 0)
(1.0018381154218 -0.026468642003548 0)
(1.0021528047133 -0.028147119033709 0)
(1.0024983721009 -0.029859494055369 0)
(1.002923308556 -0.031664345426508 0)
(1.0033730314838 -0.033476597017898 0)
(1.003950708416 -0.03542704131388 0)
(1.0045223717322 -0.037310022588817 0)
(1.0053139569363 -0.039436218226535 0)
(1.0060115059257 -0.041316871443726 0)
(1.0071192767747 -0.043699125415625 0)
(1.0079270993463 -0.045406903509914 0)
(1.0096003522593 -0.048253941057947 0)
(0.99999952821828 -0.00069564797468566 0)
(1.0000052420956 -0.0021371552126058 0)
(1.0000183862587 -0.0035776803067254 0)
(1.000037901418 -0.0049829657781017 0)
(1.0000609189693 -0.0063441487323566 0)
(1.0000852365588 -0.0076789726559892 0)
(1.0001102659627 -0.0090097904713592 0)
(1.0001369380762 -0.010350648291173 0)
(1.0001664472967 -0.011707666811637 0)
(1.0002006624315 -0.013085109753216 0)
(1.0002410077457 -0.014486745646677 0)
(1.0002902842155 -0.015917045851559 0)
(1.0003500228237 -0.017376543395909 0)
(1.0004243224083 -0.018866177697512 0)
(1.0005138231872 -0.020381861145123 0)
(1.0006247519128 -0.021928080404352 0)
(1.0007555698396 -0.023502578094573 0)
(1.0009177192875 -0.025122656076722 0)
(1.0011048783383 -0.026782575893218 0)
(1.0013399820033 -0.028514627487115 0)
(1.0016040648913 -0.030289379842499 0)
(1.001944259271 -0.032166762159072 0)
(1.0023094783254 -0.034061710468621 0)
(1.0027999280171 -0.03610754641213 0)
(1.0032885319489 -0.038096768772918 0)
(1.0039942141239 -0.040344597480468 0)
(1.0046174807733 -0.04235868215758 0)
(1.0056443630924 -0.044888148918454 0)
(1.0063986914686 -0.046761677700793 0)
(1.0080088283433 -0.049768560358531 0)
(0.99999941839834 -0.00069704402424897 0)
(1.0000007446201 -0.002144716625848 0)
(1.000005373954 -0.0035909895331493 0)
(1.0000120863138 -0.0049992799777712 0)
(1.0000179094888 -0.0063603814867835 0)
(1.0000205066267 -0.0076934554421928 0)
(1.0000192037546 -0.0090226878177429 0)
(1.0000148848301 -0.010363209090172 0)
(1.0000087929856 -0.011721652940128 0)
(1.0000027167577 -0.013102549333307 0)
(0.99999814321944 -0.014510085308419 0)
(0.99999770382065 -0.015949032314279 0)
(1.0000030976814 -0.017420345108137 0)
(1.0000181302345 -0.018925001248957 0)
(1.0000439200226 -0.020459309630764 0)
(1.0000861524486 -0.022027776166583 0)
(1.000144284255 -0.023629124608104 0)
(1.0002286042839 -0.025281122694505 0)
(1.0003347860877 -0.026979657159897 0)
(1.0004834741295 -0.028757881211473 0)
(1.0006596307127 -0.030587566196397 0)
(1.0009060239507 -0.032530649681649 0)
(1.0011787982205 -0.034500200825702 0)
(1.001570129008 -0.036637104463688 0)
(1.0019657320407 -0.038721678080393 0)
(1.0025705736733 -0.041094896898871 0)
(1.0031086177099 -0.043223979747483 0)
(1.0040394243786 -0.045925931226785 0)
(1.0047337494077 -0.047926740074106 0)
(1.0062542787969 -0.051140976048654 0)
(0.99999930964227 -0.00069631537859685 0)
(0.99999637385649 -0.0021456364135264 0)
(0.99999242208935 -0.0035927526410148 0)
(0.99998610845851 -0.0049991441694686 0)
(0.99997452318078 -0.006355399926653 0)
(0.99995510240825 -0.0076815698783462 0)
(0.99992695103019 -0.0090039213255893 0)
(0.99989095206867 -0.010338641760401 0)
(0.99984843756585 -0.011692874217169 0)
(0.99980105368201 -0.013071386830932 0)
(0.99975033155698 -0.01447878575184 0)
(0.99969859237466 -0.015920075976896 0)
(0.99964777851197 -0.017396788676556 0)
(0.99960120552883 -0.018910004067168 0)
(0.99956082255053 -0.020456799862099 0)
(0.99953127097398 -0.022041545134617 0)
(0.99951377755709 -0.02366448170384 0)
(0.99951606976632 -0.025343126135047 0)
(0.99953775283709 -0.027076160641399 0)
(0.99959375989843 -0.028896001357765 0)
(0.99967804292261 -0.030778188905156 0)
(0.99982093517544 -0.032783769270297 0)
(0.99999806902436 -0.034827790401092 0)
(1.0002747725654 -0.037056331372309 0)
(1.0005771138497 -0.039235672556826 0)
(1.0010540480266 -0.04174866246848 0)
(1.0015136920666 -0.043972981347547 0)
(1.0023019750279 -0.046925870609997 0)
(1.0029744288802 -0.04894489436711 0)
(1.004349148047 -0.052695735051082 0)
(0.99999916782223 -0.00069478526071038 0)
(0.99999182904484 -0.0021441064739994 0)
(0.99997921113789 -0.0035911366440743 0)
(0.9999594631363 -0.00499510078305 0)
(0.99993047389515 -0.0063466758916298 0)
(0.99988920820792 -0.0076656207055257 0)
(0.99983399935168 -0.0089810932812845 0)
(0.99976602479379 -0.010310371856109 0)
(0.99968667931713 -0.011661009549799 0)
(0.99959745248163 -0.013037886644832 0)
(0.9994999305983 -0.014446212359662 0)
(0.99939605293019 -0.015891192116379 0)
(0.99928781913491 -0.017375016342742 0)
(0.99917792252304 -0.018898849657936 0)
(0.99906916055191 -0.020460837460503 0)
(0.99896509234853 -0.022065225947458 0)
(0.99886896711655 -0.023714861283518 0)
(0.99878553431994 -0.025426590006201 0)