/*--------------------------------*- C++ -*----------------------------------*\
| =========                 |                                                 |
| \\      /  F ield         | OpenFOAM: The Open Source CFD Toolbox           |
|  \\    /   O peration     | Version:  2112                                  |
|   \\  /    A nd           | Website:  www.openfoam.com                      |
|    \\/     M anipulation  |                                                 |
\*---------------------------------------------------------------------------*/
FoamFile
{
    version     2.0;
    format      ascii;
    arch        "LSB;label=32;scalar=64";
    class       volVectorField;
    location    "2.2";
    object      U;
}
// * * * * * * * * * * * * * * * * * * * * * * * * * * * * * * * * * * * * * //

dimensions      [0 1 -1 0 0 0 0];

internalField   nonuniform List<vector> 
22000
(
(1.0000012384949 -2.7323776367949e-05 0)
(1.0000275807294 -7.9446760044361e-05 0)
(1.0000777682342 -0.00012917557095117 0)
(1.000151453391 -0.00017637208351697 0)
(1.0002475618144 -0.00022071834743981 0)
(1.0003662838046 -0.00026330276264667 0)
(1.0005062947256 -0.00030504876950181 0)
(1.00066639985 -0.00034483709814406 0)
(1.0008450063416 -0.00038179516047658 0)
(1.0010386394877 -0.00041759833012275 0)
(1.0012458855817 -0.00045473195467646 0)
(1.0014712738078 -0.00049286459666579 0)
(1.0017216534358 -0.00052795678712492 0)
(1.0019945786443 -0.00055661492475951 0)
(1.002275201143 -0.00058057354973979 0)
(1.0025559384835 -0.00060620126066086 0)
(1.0028497045141 -0.00064046086323332 0)
(1.0031726070583 -0.00068874024336594 0)
(1.0035264129265 -0.00075338000210363 0)
(1.0039096491636 -0.00083460504660512 0)
(1.0043313639179 -0.00092808300230756 0)
(1.0048048166834 -0.001028268283016 0)
(1.0053326631837 -0.0011256659758497 0)
(1.0059087346186 -0.0012154509112579 0)
(1.0065233355818 -0.0012875565823832 0)
(1.0071696215567 -0.0013454100429147 0)
(1.0078374449872 -0.0013783961858564 0)
(1.0085202175121 -0.0014038272206578 0)
(1.0092060046402 -0.0013994515892103 0)
(1.0098935715495 -0.0014069793149417 0)
(1.0000006413045 -8.071326138479e-05 0)
(1.0000274750255 -0.00023512351027253 0)
(1.0000785011388 -0.000382343274018 0)
(1.0001533965822 -0.00052199232202718 0)
(1.0002514234079 -0.00065401866492693 0)
(1.0003724594352 -0.00078009176968422 0)
(1.0005157930424 -0.00090215116182366 0)
(1.0006800310971 -0.0010199833880254 0)
(1.0008631234158 -0.0011322574246679 0)
(1.0010606832445 -0.0012397471754889 0)
(1.0012694923413 -0.0013461499942141 0)
(1.0014960783723 -0.0014533723095768 0)
(1.0017522304637 -0.0015560118766913 0)
(1.0020341416856 -0.0016456455888677 0)
(1.0023209600346 -0.0017212280366978 0)
(1.0026045742637 -0.0017948191809201 0)
(1.0029017097674 -0.0018869173528383 0)
(1.003229498462 -0.0020198142556287 0)
(1.0035876264636 -0.0022074321842133 0)
(1.003975106061 -0.0024527320064589 0)
(1.0044030343876 -0.002740667453742 0)
(1.0048868826063 -0.0030504372292319 0)
(1.0054280028141 -0.0033497817850204 0)
(1.0060206977883 -0.0036217889328331 0)
(1.0066517731825 -0.003837371418465 0)
(1.007316906837 -0.0040069722990724 0)
(1.0080003294971 -0.0041015485248423 0)
(1.0087019996904 -0.0041719059039128 0)
(1.009399385981 -0.0041564713218156 0)
(1.0101073696341 -0.0041739408168374 0)
(1.0000006772926 -0.00013290845572272 0)
(1.0000291180951 -0.00038727540227659 0)
(1.0000828188947 -0.00062975862624144 0)
(1.0001616771098 -0.00086006320740489 0)
(1.0002649459014 -0.0010781741546334 0)
(1.0003922985714 -0.0012855268090385 0)
(1.0005432793895 -0.0014851996398567 0)
(1.000716163758 -0.0016787341472317 0)
(1.0009083691025 -0.0018644668938239 0)
(1.0011145432838 -0.0020418746093443 0)
(1.0013306847424 -0.0022154158535761 0)
(1.0015661892583 -0.0023890137252436 0)
(1.0018362367448 -0.0025566344516801 0)
(1.0021340581097 -0.0027056863640263 0)
(1.002433200062 -0.0028315887587603 0)
(1.0027263969761 -0.0029505806838841 0)
(1.0030348734961 -0.0030963351058338 0)
(1.0033769407768 -0.0033090283436318 0)
(1.003749569424 -0.0036153959057229 0)
(1.0041515440649 -0.0040216432111346 0)
(1.004594886246 -0.0045018448650101 0)
(1.005097532518 -0.0050194805646377 0)
(1.0056590620487 -0.0055185011944795 0)
(1.006275616876 -0.0059692763892884 0)
(1.0069295037462 -0.006323472827577 0)
(1.0076213537432 -0.0065993179683724 0)
(1.0083262313554 -0.0067494687152538 0)
(1.0090561632755 -0.0068598150014266 0)
(1.0097693438495 -0.0068287746225624 0)
(1.0105095827271 -0.00685449560776 0)
(1.0000007220532 -0.00018534592440174 0)
(1.0000311404707 -0.00053983633620776 0)
(1.000088480247 -0.00087780908440754 0)
(1.0001727040829 -0.0011989914213563 0)
(1.0002830117822 -0.0015028420781485 0)
(1.0004188634631 -0.0017908280132489 0)
(1.0005796719152 -0.0020676120403067 0)
(1.0007635666644 -0.0023360954498716 0)
(1.0009678832977 -0.0025940639027056 0)
(1.00118636125 -0.002840278333591 0)
(1.0014140802428 -0.0030803789372701 0)
(1.0016628105592 -0.0033199169428431 0)
(1.0019507081618 -0.0035517941937795 0)
(1.0022688733177 -0.0037594677696528 0)
(1.0025862058944 -0.0039354193117949 0)
(1.0028959035628 -0.0041000171663382 0)
(1.0032226734178 -0.0042992628966706 0)
(1.0035860277505 -0.0045905047065555 0)
(1.0039804760684 -0.0050130113524851 0)
(1.0044046708108 -0.0055768030420503 0)
(1.0048708505075 -0.0062456538559765 0)
(1.0053997604981 -0.0069676595145671 0)
(1.0059885600597 -0.0076626258514382 0)
(1.0066364537731 -0.0082882817058034 0)
(1.0073196685087 -0.0087761353645899 0)
(1.0080461960448 -0.0091530423015488 0)
(1.0087783671978 -0.0093527269827712 0)
(1.0095458557748 -0.0094984618489142 0)
(1.0102793056786 -0.0094462572577824 0)
(1.0110647359585 -0.0094780961927273 0)
(1.0000007807426 -0.00023846948885048 0)
(1.0000335509161 -0.00069429959010618 0)
(1.0000953146288 -0.0011289566178751 0)
(1.0001859373001 -0.001542013122967 0)
(1.0003046182939 -0.0019322803121475 0)
(1.000450855489 -0.0023013731366897 0)
(1.0006237548051 -0.0026554063917452 0)
(1.0008211863509 -0.0029985745194537 0)
(1.0010404631418 -0.0033285592720997 0)
(1.0012742436756 -0.0036438560323919 0)
(1.001516553551 -0.0039511631824012 0)
(1.0017813382085 -0.0042571179819467 0)
(1.0020893023347 -0.0045532072319962 0)
(1.0024296753318 -0.0048191838608695 0)
(1.0027675987447 -0.0050449363084553 0)
(1.003096842513 -0.0052546592697542 0)
(1.0034446554379 -0.0055057820064519 0)
(1.0038315586718 -0.0058723428865031 0)
(1.004250515685 -0.006406436317387 0)
(1.0047016438859 -0.0071229121126343 0)
(1.0051978599333 -0.0079758255043508 0)
(1.005763140612 -0.0088983535736547 0)
(1.0063911681806 -0.0097856105305131 0)
(1.0070841519254 -0.01058282731918 0)
(1.0078096410498 -0.011200447254849 0)
(1.0085838163614 -0.011675075172743 0)
(1.0093526292902 -0.011920498819837 0)
(1.0101675331984 -0.0120998047819 0)
(1.0109256339895 -0.012024167875666 0)
(1.0117652878102 -0.012063596509639 0)
(1.0000008598551 -0.00029255586088245 0)
(1.000036256643 -0.00085153140585495 0)
(1.0001030249222 -0.0013845843736166 0)
(1.0002009208069 -0.0018909501858487 0)
(1.0003288789004 -0.0023688141143382 0)
(1.0004865373651 -0.0028200101702605 0)
(1.0006725403496 -0.0032518160477292 0)
(1.0008843459453 -0.0036696375952437 0)
(1.00111977345 -0.0040716181538722 0)
(1.001370705447 -0.0044563948460773 0)
(1.0016299544608 -0.0048313632175608 0)
(1.0019137406205 -0.0052039646867182 0)
(1.0022454175965 -0.0055648277350874 0)
(1.0026122704313 -0.005890631408132 0)
(1.0029758045672 -0.0061681536529611 0)
(1.0033306251685 -0.0064242252362638 0)
(1.0037063999211 -0.0067273672880956 0)
(1.0041244233072 -0.007169904353777 0)
(1.0045755557579 -0.0078191363112285 0)
(1.0050605254852 -0.0086962486949996 0)
(1.0055911399281 -0.0097441277800782 0)
(1.0061935463724 -0.01087769231052 0)
(1.0068573621793 -0.011962549517766 0)
(1.0075896503904 -0.012929266531476 0)
(1.0083506156291 -0.013665679567079 0)
(1.0091677686659 -0.014222146082483 0)
(1.0099708665277 -0.014493106902117 0)
(1.0108353599825 -0.014689722402399 0)
(1.0116229351219 -0.014573850722588 0)
(1.0125254723543 -0.014616106861745 0)
(1.0000009465335 -0.00034766970546777 0)
(1.0000391265651 -0.0010116841883243 0)
(1.0001111995337 -0.0016448618625148 0)
(1.0002168251898 -0.0022461406431791 0)
(1.0003546972979 -0.0028129216505214 0)
(1.0005246256709 -0.0033471324421227 0)
(1.0007248249752 -0.0038573242938923 0)
(1.000952377667 -0.0043501269386903 0)
(1.0012053871858 -0.0048241544989483 0)
(1.0014747708033 -0.0052786154696872 0)
(1.0017522418716 -0.0057221390017159 0)
(1.0020558492254 -0.0061628288184725 0)
(1.0024106723214 -0.0065895837251967 0)
(1.0028022919419 -0.0069756068249468 0)
(1.0031898669127 -0.0073055647566771 0)
(1.0035695982146 -0.0076105551492644 0)
(1.0039734412457 -0.0079700113590933 0)
(1.0044232838038 -0.0084913957201696 0)
(1.0049070895537 -0.0092522054806646 0)
(1.0054247281007 -0.010276867842647 0)
(1.0059849287661 -0.011497902331094 0)
(1.0066157583842 -0.01281775738003 0)
(1.0073032709055 -0.0140792057685 0)
(1.008062465576 -0.015204998914852 0)
(1.0088474860315 -0.016061284631204 0)
(1.0097015067297 -0.016713088552948 0)
(1.0105358952067 -0.017027819985912 0)
(1.0114561008181 -0.017265754304228 0)
(1.0122782933173 -0.017126478768445 0)
(1.0132630857012 -0.01719262657922 0)
(1.0000010400517 -0.00040367256059835 0)
(1.0000420538515 -0.0011743387921134 0)
(1.0001195531691 -0.0019092428315245 0)
(1.0002330917582 -0.0026068073902156 0)
(1.0003809948788 -0.003263504987533 0)
(1.0005631982312 -0.0038815790681644 0)
(1.000777396204 -0.0044708257510246 0)
(1.0010201910926 -0.0050387783816373 0)
(1.0012902152881 -0.0055847459013384 0)
(1.0015779815594 -0.0061092866858432 0)
(1.0018744123807 -0.006622506196786 0)
(1.0021991867919 -0.0071323959812412 0)
(1.0025788193158 -0.0076253784349519 0)
(1.0029974206409 -0.0080718210846857 0)
(1.0034122729631 -0.0084558696843622 0)
(1.0038209766812 -0.0088134882185336 0)
(1.0042567238476 -0.0092329707287781 0)
(1.0047414572995 -0.0098332305860977 0)
(1.0052610542079 -0.010698911606708 0)
(1.0058166752257 -0.011857937849474 0)
(1.0064157713615 -0.013235518150007 0)
(1.0070894654802 -0.014726743992704 0)
(1.0078190021464 -0.016155035918984 0)
(1.0086256077058 -0.017437901007659 0)
(1.0094532602293 -0.018418376401139 0)
(1.0103596671166 -0.01917564390854 0)
(1.0112336897326 -0.019545944909323 0)
(1.012214714678 -0.019838822478611 0)
(1.0130676178356 -0.019687424577476 0)
(1.0141347611986 -0.019789112545639 0)
(1.0000011300812 -0.0004602708744816 0)
(1.0000448962884 -0.0013387007229874 0)
(1.0001276934849 -0.0021763283875068 0)
(1.0002488838654 -0.0029710292016447 0)
(1.0004064778167 -0.0037183138934715 0)
(1.0006006189282 -0.0044205626372662 0)
(1.0008284606058 -0.0050887427080303 0)
(1.0010862505514 -0.00573149465114 0)
(1.0013733351019 -0.0063491233513029 0)
(1.0016797016327 -0.0069436419161275 0)
(1.0019949981088 -0.0075265498385032 0)
(1.0023400018033 -0.0081059471986102 0)
(1.0027427564089 -0.0086664066451741 0)
(1.0031867583885 -0.0091757378340751 0)
(1.0036277651094 -0.0096168237343686 0)
(1.0040639493515 -0.010029609906049 0)
(1.0045291900811 -0.01051131505474 0)
(1.0050467545363 -0.011193749810746 0)
(1.0056024178031 -0.01217004504908 0)
(1.0061994753216 -0.013471904654713 0)
(1.0068429581785 -0.015015004741019 0)
(1.0075650779707 -0.016684202450105 0)
(1.0083399977021 -0.018279890759386 0)
(1.0091940311858 -0.019714062453494 0)
(1.0100607954195 -0.020806226620605 0)
(1.0110139871872 -0.021654914415864 0)
(1.0119220137335 -0.022065194083191 0)
(1.0129594210826 -0.022404169275844 0)
(1.0138428147687 -0.022232284496263 0)
(1.014992810226 -0.022373386955925 0)
(1.0000012129664 -0.00051705676989258 0)
(1.0000475567201 -0.0015035686624933 0)
(1.0001353155183 -0.0024441316272015 0)
(1.0002636390799 -0.0033361125859312 0)
(1.0004303369366 -0.004173968636309 0)
(1.0006356216516 -0.0049600289283381 0)
(1.0008760042329 -0.0057065941453677 0)
(1.0011474850631 -0.0064236917826712 0)
(1.0014499664067 -0.0071125811179261 0)
(1.0017730131049 -0.0077766913014668 0)
(1.0021056159743 -0.0084294124155431 0)
(1.0024696336917 -0.0090795453254374 0)
(1.0028939811188 -0.0097093367254561 0)
(1.0033615870497 -0.010282629896623 0)
(1.0038273679433 -0.010780469673892 0)
(1.00429027605 -0.011248407837906 0)
(1.0047846378097 -0.011794889646046 0)
(1.0053349283323 -0.012564988341533 0)
(1.0059263863622 -0.013656798169803 0)
(1.0065633249242 -0.015100405473133 0)
(1.0072468967132 -0.016797575076993 0)
(1.0080100953932 -0.018623877189221 0)
(1.0088204994594 -0.020361404582995 0)
(1.0097118386182 -0.021925363389847 0)
(1.010608436375 -0.023116787355051 0)
(1.0116035721636 -0.024059102570631 0)
(1.0125429043177 -0.024521359451929 0)
(1.0136422118196 -0.024930758320594 0)
(1.0145587467512 -0.024760240124748 0)
(1.0158088945764 -0.024971829852695 0)
(1.0000012876143 -0.00057355106399436 0)
(1.0000499176593 -0.0016675233803568 0)
(1.0001420725488 -0.0027103874950348 0)
(1.0002766954836 -0.0036989824494326 0)
(1.0004513944748 -0.0046266804810185 0)
(1.0006663724947 -0.0054956686459555 0)
(1.0009176186298 -0.0063195033644417 0)
(1.0012009170402 -0.0071097210747909 0)
(1.0015166387878 -0.007868753024558 0)
(1.0018543594869 -0.0086015446799871 0)
(1.0022027440945 -0.0093234398740546 0)
(1.0025839930109 -0.010044046128153 0)
(1.0030271246941 -0.010743328851496 0)
(1.0035150804651 -0.011381352443097 0)
(1.0040032901641 -0.011937693376681 0)
(1.0044919793485 -0.012463706855512 0)
(1.0050150589039 -0.013078303941867 0)
(1.005596734156 -0.01393838392861 0)
(1.0062208428472 -0.015145300811006 0)
(1.006893147543 -0.016726952980281 0)
(1.0076126906792 -0.018571675478335 0)
(1.0084157645922 -0.020548054388942 0)
(1.0092653765396 -0.022421847340172 0)
(1.0102034021785 -0.024113843305531 0)
(1.0111431318734 -0.025406548583737 0)
(1.0121955315628 -0.026448690599701 0)
(1.0131790653254 -0.026971234133683 0)
(1.0143519258797 -0.02746124232073 0)
(1.0153049128931 -0.027301848164751 0)
(1.0166626669282 -0.027594901693179 0)
(1.0000013513135 -0.00062922278673033 0)
(1.0000518735657 -0.0018290219505625 0)
(1.0001476670232 -0.0029726094888402 0)
(1.000287470643 -0.0040562023121603 0)
(1.0004687110406 -0.0050721061811338 0)
(1.0006915914612 -0.0060223563088402 0)
(1.0009516526866 -0.0069215781560582 0)
(1.0012444719975 -0.007782836253275 0)
(1.0015708819923 -0.0086101712751528 0)
(1.0019206630229 -0.0094104455996097 0)
(1.0022822433606 -0.010200804138112 0)
(1.0026777784663 -0.010991255711055 0)
(1.0031360419074 -0.011759694666069 0)
(1.0036402884742 -0.01246342185617 0)
(1.0041472220888 -0.013081120626934 0)
(1.0046585831822 -0.013669036741439 0)
(1.0052074526316 -0.014354397956818 0)
(1.0058172620771 -0.01530435280438 0)
(1.0064706577711 -0.016623583996257 0)
(1.0071753127454 -0.018339809928292 0)
(1.0079287299805 -0.020329963719643 0)
(1.0087706354183 -0.022457024993855 0)
(1.0096598527631 -0.02446942007613 0)
(1.0106459155225 -0.026292503598168 0)
(1.0116310815504 -0.027687946621915 0)
(1.0127423988666 -0.028830497682075 0)
(1.013772166383 -0.029412062240094 0)
(1.0150183457903 -0.029983181782578 0)
(1.0160098092129 -0.0298354606283 0)
(1.0174733063751 -0.030216115794446 0)
(1.0000014010031 -0.00068353235521356 0)
(1.0000533433952 -0.0019864922009553 0)
(1.0001518621671 -0.003228197316798 0)
(1.0002955197577 -0.0044042283552914 0)
(1.0004816213255 -0.0055058660146754 0)
(1.0007103209425 -0.0065349222739301 0)
(1.000976685991 -0.0075069503052583 0)
(1.0012761068827 -0.008436644321615 0)
(1.0016098743597 -0.0093300330170352 0)
(1.0019681234254 -0.010196133162284 0)
(1.002339272103 -0.011053673153421 0)
(1.0027452576398 -0.011912782552644 0)
(1.0032143321564 -0.012749545235673 0)
(1.0037302533808 -0.013519251561764 0)
(1.0042515548565 -0.014200089414609 0)
(1.0047815099822 -0.014852652909018 0)
(1.005352227653 -0.015611167684503 0)
(1.0059864084676 -0.016651749288561 0)
(1.0066660915069 -0.018081929987752 0)
(1.0074006741749 -0.019929900531984 0)
(1.0081857082244 -0.02206231717678 0)
(1.0090631938765 -0.024337753491651 0)
(1.0099877246124 -0.026487612656297 0)
(1.0110160944564 -0.028442262185302 0)
(1.0120406788344 -0.02994160494846 0)
(1.0132046464408 -0.03118779370754 0)
(1.0142760250167 -0.031831428868443 0)
(1.0155919835589 -0.032490576287165 0)
(1.0166215270026 -0.032359739871156 0)
(1.0181919299262 -0.032840665247475 0)
(1.0000014380389 -0.00073595923390519 0)
(1.0000542603935 -0.0021384081649564 0)
(1.0001544648066 -0.0034746708762155 0)
(1.0003004783804 -0.0047397085584347 0)
(1.0004894907237 -0.0059237991621413 0)
(1.0007215399486 -0.0070284523861089 0)
(1.0009912706522 -0.0080700493201786 0)
(1.0012939664038 -0.009064997524832 0)
(1.0016313925152 -0.010021550748616 0)
(1.0019942046591 -0.010950984007725 0)
(1.0023710320066 -0.011873465380188 0)
(1.0027833477487 -0.012799179598481 0)
(1.0032585662902 -0.013702765195422 0)
(1.0037810684049 -0.014538180856809 0)
(1.004311732312 -0.015283528957556 0)
(1.0048552301368 -0.016003304158744 0)
(1.0054426043915 -0.016837635254242 0)
(1.0060955817893 -0.017970237693972 0)
(1.0067963552464 -0.019510927221872 0)
(1.007555600908 -0.021488289150546 0)
(1.0083674704701 -0.023759735702908 0)
(1.0092748062726 -0.026179977128844 0)
(1.0102291910882 -0.028464734304415 0)
(1.0112931224666 -0.030549548646935 0)
(1.0123512317108 -0.032153219245178 0)
(1.0135615060927 -0.033505891452981 0)
(1.0146697477684 -0.034215941840886 0)
(1.0160518096328 -0.034971148732038 0)
(1.0171177230013 -0.03486532780022 0)
(1.0187965621426 -0.035460543924508 0)
(1.0000014628094 -0.00078602461131641 0)
(1.0000545750276 -0.00228336932502 0)
(1.0001553376386 -0.0037097763590932 0)
(1.0003020817903 -0.0050595831740081 0)
(1.0004918737165 -0.0063220352356129 0)
(1.0007246035225 -0.0074982953132904 0)
(1.0009946007811 -0.008605525582539 0)
(1.0012971292705 -0.0096618772430822 0)
(1.0016343862276 -0.010677994497914 0)
(1.0019975856179 -0.011667576966981 0)
(1.0023756862125 -0.012652233296927 0)
(1.0027894483189 -0.013642172485111 0)
(1.0032652395662 -0.014610817847896 0)
(1.0037882539849 -0.015511293162983 0)
(1.0043223819789 -0.016321955225352 0)
(1.004873590881 -0.017110826150517 0)
(1.0054718432551 -0.01802302471799 0)
(1.0061372308166 -0.019248498718653 0)
(1.0068530291284 -0.020898842313495 0)
(1.0076300694517 -0.023002495186685 0)
(1.0084628182224 -0.025409034045711 0)
(1.0093920005977 -0.027969047711129 0)
(1.0103701933936 -0.030385632013983 0)
(1.0114603001588 -0.032597617086478 0)
(1.0125465965964 -0.03430727807086 0)
(1.0137941443315 -0.035768852848144 0)
(1.0149350415219 -0.036552044600666 0)
(1.0163779072663 -0.037413447838683 0)
(1.0174771826266 -0.037342773055847 0)
(1.0192654154482 -0.038068424942765 0)
(1.0000014727984 -0.00083330608461878 0)
(1.0000542589594 -0.0024201369699005 0)
(1.0001544103164 -0.0039315038896889 0)
(1.0003002035675 -0.0053611064207919 0)
(1.0004885983349 -0.0066971159369935 0)
(1.0007192984611 -0.0079403647026068 0)
(1.0009863845367 -0.0091087877351836 0)
(1.0012851287754 -0.010222236105115 0)
(1.0016180800496 -0.011293823425005 0)
(1.0019770698277 -0.012339843577291 0)
(1.0023516010801 -0.01338336517092 0)
(1.0027615901938 -0.014434572681168 0)
(1.0032322097876 -0.015465846038369 0)
(1.0037495918684 -0.016429890146646 0)
(1.0042810232378 -0.017305594644979 0)
(1.0048336075076 -0.018164247137865 0)
(1.0054360499124 -0.01915523549692 0)
(1.0061065857527 -0.020473646036887 0)
(1.006829946476 -0.022232222111358 0)
(1.0076167116924 -0.024458865398943 0)
(1.0084622643983 -0.026996237427505 0)
(1.0094039840779 -0.029691029783313 0)
(1.010398038212 -0.032236340460826 0)
(1.0115037776112 -0.034572756320221 0)
(1.012613449542 -0.03639161869166 0)
(1.0138854174859 -0.037963328130155 0)
(1.0150617257308 -0.038832058244832 0)
(1.0165478691155 -0.039804314478923 0)
(1.0176939224826 -0.0397881084341 0)
(1.0195808808518 -0.040657530360311 0)
(1.0000014675939 -0.00087744937112259 0)
(1.0000533157089 -0.0025476776805289 0)
(1.0001516789305 -0.0041381738362984 0)
(1.0002948060511 -0.0056419758986567 0)
(1.0004795640347 -0.0070461473033444 0)
(1.000705445427 -0.0083512500136833 0)
(1.0009663966622 -0.0095760172278022 0)
(1.0012577640007 -0.010741928357972 0)
(1.0015823499263 -0.011864535788739 0)
(1.0019326100348 -0.012962804349076 0)
(1.0022987477155 -0.014061278095721 0)
(1.0026996435899 -0.015170169640857 0)
(1.003159160474 -0.016261088999991 0)
(1.0036645832626 -0.017286693063462 0)
(1.0041869137051 -0.018226537566384 0)
(1.0047341386779 -0.019154694097828 0)
(1.0053333074745 -0.020224094268803 0)
(1.006000771814 -0.021633975763037 0)
(1.0067228308251 -0.023497843366153 0)
(1.0075100191024 -0.025842933771697 0)
(1.0083585189448 -0.028506002958428 0)
(1.0093028350825 -0.03133046681307 0)
(1.0103028124016 -0.034001451240101 0)
(1.0114146865762 -0.036461075399242 0)
(1.0125395237873 -0.038392488963342 0)
(1.0138267372714 -0.040078325576959 0)
(1.0150348374301 -0.041045121655902 0)
(1.0165517501036 -0.042133276936366 0)
(1.0177518231608 -0.042195951891321 0)
(1.0197240118164 -0.043217957156424 0)
(1.0000014474037 -0.00091818084400666 0)
(1.0000517628055 -0.002665197588373 0)
(1.0001471941195 -0.0043285076931243 0)
(1.0002859881234 -0.0059004581405252 0)
(1.0004649341296 -0.007366947495594 0)
(1.0006832487131 -0.0087283187558625 0)
(1.0009348005147 -0.010004140390051 0)
(1.0012151152583 -0.011217453350153 0)
(1.0015272628253 -0.012386172748244 0)
(1.0018643883967 -0.013532007390339 0)
(1.0022175019757 -0.014681081083141 0)
(1.0026041576731 -0.015843815355782 0)
(1.0030467379239 -0.016991326459255 0)
(1.0035339445729 -0.018076405243253 0)
(1.0040408675125 -0.019079236065075 0)
(1.0045761110826 -0.02007597130951 0)
(1.005164460583 -0.021222355360432 0)
(1.0058201417488 -0.022720818121564 0)
(1.0065308622528 -0.024685510231901 0)
(1.0073074841493 -0.027143128559005 0)
(1.0081469070602 -0.029925764417549 0)
(1.009081855249 -0.032874278321827 0)
(1.0100755719893 -0.035667482486828 0)
(1.0111827354628 -0.038249079438112 0)
(1.0123118676556 -0.040295778379931 0)
(1.0136059547183 -0.042100191056376 0)
(1.0148364648249 -0.043175249478552 0)
(1.0163786313303 -0.04438778085044 0)
(1.0176249244727 -0.04454695980621 0)
(1.0196797014497 -0.045733786790241 0)
(1.0000014116111 -0.00095531087040104 0)
(1.0000496303619 -0.0027721442526919 0)
(1.0001410319147 -0.0045016013415372 0)
(1.0002738855625 -0.006135348754229 0)
(1.0004449829248 -0.0076580579133413 0)
(1.0006532305619 -0.0090698456734589 0)
(1.0008923816593 -0.010391156562399 0)
(1.0011581580894 -0.011646578531634 0)
(1.0014538887679 -0.01285624221047 0)
(1.0017734623874 -0.014044496783414 0)
(1.002108730126 -0.015239094694784 0)
(1.002475753552 -0.016451038559315 0)
(1.0028954336567 -0.017651429712929 0)
(1.0033583114807 -0.018793328404884 0)
(1.0038437533533 -0.019857337847471 0)
(1.0043605465305 -0.020920797636183 0)
(1.0049304308941 -0.022141633416669 0)
(1.0055651685258 -0.023724658519818 0)
(1.0062536488031 -0.025784895761748 0)
(1.0070074199674 -0.028348878992776 0)
(1.0078243601061 -0.031245357651726 0)
(1.0087364383059 -0.034313670486199 0)
(1.0097107743215 -0.03722698496797 0)
(1.0108012330172 -0.03993140204145 0)
(1.0119233595845 -0.042097024906646 0)
(1.0132153243313 -0.044025964025025 0)
(1.0144585104214 -0.045218959468079 0)
(1.0160207877752 -0.046565099409856 0)
(1.0173042551892 -0.046836871435592 0)
(1.0194412171404 -0.048201081727678 0)
(1.0000013598528 -0.00098872813259317 0)
(1.0000469625655 -0.0028681983310453 0)
(1.0001333048649 -0.0046569196112359 0)
(1.0002586963991 -0.0063459420464109 0)
(1.0004200351561 -0.0079186513833055 0)
(1.0006158805488 -0.0093748425682129 0)
(1.0008398426775 -0.010735919258432 0)
(1.0010879426951 -0.012028166951464 0)
(1.0013637918201 -0.013273753584911 0)
(1.0016619995714 -0.014499219139675 0)
(1.0019750172207 -0.015733847624689 0)
(1.0023172307427 -0.016989802918922 0)
(1.0027080429092 -0.018238975131655 0)
(1.0031406504767 -0.019434611114311 0)
(1.0035986739657 -0.020556974289449 0)
(1.0040906414683 -0.021683114017326 0)
(1.0046337586139 -0.022972670630045 0)
(1.0052369827925 -0.024632455888138 0)
(1.005889847551 -0.026779760801873 0)
(1.0066057478622 -0.029441746936209 0)
(1.0073842935767 -0.03244586473622 0)
(1.008258750896 -0.035630678491284 0)
(1.0092007420666 -0.038664138800586 0)
(1.0102642500703 -0.041494970850555 0)
(1.0113704461644 -0.043785921848454 0)
(1.0126542432728 -0.045848309025551 0)
(1.0139027714322 -0.047170559816263 0)
(1.015482203593 -0.048663326335915 0)
(1.0167966747763 -0.049063057493134 0)
(1.019009505803 -0.050624695417519 0)
(1.0000012921689 -0.0010183914003541 0)
(1.0000437984765 -0.0029532329075561 0)
(1.0001241264708 -0.0047942434630804 0)
(1.0002406698768 -0.0065319937079884 0)
(1.0003905344222 -0.0081484821493755 0)
(1.0005718593164 -0.0096429675658836 0)
(1.0007780619105 -0.011037959816416 0)
(1.0010055939542 -0.012361766132805 0)
(1.0012584092273 -0.013638425893067 0)
(1.0015318071259 -0.014895862716559 0)
(1.0018185194781 -0.016164688342796 0)
(1.0021312008788 -0.017459055928367 0)
(1.0024879220503 -0.018753071094413 0)
(1.0028855707406 -0.020000016932998 0)
(1.0033116638136 -0.021178398649918 0)
(1.0037736127922 -0.022362452579471 0)
(1.0042818944228 -0.023712649205022 0)
(1.0048421226724 -0.02543788571404 0)
(1.005444116004 -0.027660454636509 0)
(1.0061050072345 -0.030409886492049 0)
(1.0068278711473 -0.033515121093561 0)
(1.0076504694827 -0.036813536287527 0)
(1.0085489913521 -0.039968406142157 0)
(1.0095794510823 -0.042928722290124 0)
(1.0106650788485 -0.045350574458139 0)
(1.0119387468875 -0.047552576221936 0)
(1.013189894461 -0.049010802537594 0)
(1.0147826587888 -0.05066199908823 0)
(1.0161279994419 -0.051196523966228 0)
(1.018403736217 -0.052979736555022 0)
(1.0000012029585 -0.0010443343252477 0)
(1.0000401831301 -0.0030273044516191 0)
(1.0001136352938 -0.0049136188780688 0)
(1.0002200928809 -0.0066935739271603 0)
(1.0003569507143 -0.0083476465805317 0)
(1.0005218839834 -0.0098742651404016 0)
(1.0007081297493 -0.011297246894456 0)
(1.000912614671 -0.012647350163265 0)
(1.0011396375203 -0.013950279334971 0)
(1.001385202374 -0.015234342009926 0)
(1.0016421310401 -0.016531279162678 0)
(1.0019209596134 -0.017858298212749 0)
(1.002238620658 -0.019193199156511 0)
(1.0025963869682 -0.020488669769296 0)
(1.0029860259707 -0.021719088603452 0)
(1.0034126290872 -0.022953214931952 0)
(1.0038786803364 -0.024351704807703 0)
(1.0043849850489 -0.026127728715736 0)
(1.0049228811527 -0.028412613139258 0)
(1.0055140465532 -0.031241805096995 0)
(1.0061692661651 -0.034447978308131 0)
(1.0069315127154 -0.037865052936026 0)
(1.0077843059823 -0.041150609156998 0)
(1.0087820771871 -0.044248715436107 0)
(1.0098514849628 -0.046809097985544 0)
(1.011116366131 -0.049155421480342 0)
(1.0123719435273 -0.05075231432423 0)
(1.01397361482 -0.052564507458397 0)
(1.0153434962514 -0.05323647307776 0)
(1.0176801290998 -0.055247483971329 0)
(1.0000010858053 -0.0010667656528814 0)
(1.0000362561113 -0.0030909588687062 0)
(1.0001021715544 -0.0050156938836564 0)
(1.0001974920639 -0.0068313401662468 0)
(1.0003199649896 -0.0085168795345872 0)
(1.0004669270431 -0.01006957043687 0)
(1.0006315201138 -0.011514622473586 0)
(1.0008109301961 -0.012885713412705 0)
(1.001009547112 -0.014209956936014 0)
(1.0012242184229 -0.015514867107175 0)
(1.0014482892966 -0.016833211677115 0)
(1.0016902192788 -0.01818715415596 0)
(1.0019660149747 -0.01956022707516 0)
(1.0022806349481 -0.020903542896491 0)
(1.0026295718716 -0.02218308772099 0)
(1.0030143327634 -0.023457338504296 0)
(1.0034299954121 -0.024886006170118 0)
(1.0038723243895 -0.026689846023802 0)
(1.0043366339623 -0.029016586424738 0)
(1.0048486152773 -0.031912891261896 0)
(1.0054307489125 -0.035219780039203 0)
(1.0061275640461 -0.038762252213332 0)
(1.0069367919819 -0.04219210726337 0)
(1.0078989733416 -0.045437996204425 0)
(1.0089598027668 -0.048146900375095 0)
(1.0102066030124 -0.050641357554688 0)
(1.0114765704884 -0.052378655712444 0)
(1.0130630326858 -0.054359367722805 0)
(1.0144675849388 -0.055147216709741 0)
(1.0168170886837 -0.057420497845432 0)
(1.0000009181854 -0.001086258360981 0)
(1.000032318361 -0.0031461273181387 0)
(1.0000904492707 -0.0051033748520923 0)
(1.0001737395818 -0.0069489634751487 0)
(1.0002803978038 -0.0086608194392523 0)
(1.0004079740734 -0.010234805843285 0)
(1.0005496946603 -0.011697257712086 0)
(1.000702480096 -0.013085182049879 0)
(1.0008705178262 -0.014427290522995 0)
(1.0010518093909 -0.015749325388403 0)
(1.0012401988014 -0.017084170403273 0)
(1.0014413943036 -0.018459920119356 0)
(1.0016705298156 -0.019867811248581 0)
(1.0019371304204 -0.021258469924177 0)
(1.0022420922133 -0.022589355037188 0)
(1.0025837502532 -0.023906020593149 0)
(1.0029502423128 -0.025364690461816 0)
(1.0033292680039 -0.027194182877853 0)
(1.0037208086199 -0.029561110128271 0)
(1.0041505039234 -0.03252411599376 0)
(1.0046549482457 -0.03593843438841 0)
(1.0052704002761 -0.039617861856741 0)
(1.0060224077194 -0.043212267165043 0)
(1.0069153724343 -0.046623633586994 0)
(1.0079552165649 -0.049502836427329 0)
(1.0091290913037 -0.052158911138843 0)
(1.0104287830072 -0.054050757682607 0)
(1.0119123851195 -0.056240495406282 0)
(1.013441150627 -0.057133238147672 0)
(1.0157080550028 -0.0599422958618 0)
(1.0000005628113 -0.001104634872892 0)
(1.000027602092 -0.0031986628361449 0)
(1.0000779363206 -0.0051877225392447 0)
(1.0001486093769 -0.0070634595304741 0)
(1.0002383363681 -0.0088024892421573 0)
(1.000345588747 -0.010398850300527 0)
(1.0004642491995 -0.01187946969715 0)
(1.0005900787524 -0.013285381288037 0)
(1.0007262987858 -0.014648249007552 0)
(1.0008732141561 -0.015992536395899 0)
(1.0010264681338 -0.017350764157544 0)
(1.001187786466 -0.018756323102771 0)
(1.0013674261263 -0.020207511337513 0)
(1.001576626975 -0.021653293323509 0)
(1.0018240688506 -0.023042185947604 0)
(1.0021126745319 -0.024412171645431 0)
(1.0024341479235 -0.025923733276251 0)
(1.002773273278 -0.027818144773709 0)
(1.0031227150665 -0.030285756545211 0)
(1.003495856749 -0.033390668769828 0)