/*--------------------------------*- C++ -*----------------------------------*\
| =========                 |                                                 |
| \\      /  F ield         | OpenFOAM: The Open Source CFD Toolbox           |
|  \\    /   O peration     | Version:  2112                                  |
|   \\  /    A nd           | Website:  www.openfoam.com                      |
|    \\/     M anipulation  |                                                 |
\*---------------------------------------------------------------------------*/
FoamFile
{
    version     2.0;
    format      ascii;
    arch        "LSB;label=32;scalar=64";
    class       volVectorField;
    location    "2.7";
    object      U;
}
// * * * * * * * * * * * * * * * * * * * * * * * * * * * * * * * * * * * * * //

dimensions      [0 1 -1 0 0 0 0];

internalField   nonuniform List<vector> 
22000
(
(1.0000009957981 -2.6326848320923e-05 0)
(1.0000271801327 -8.0534298127952e-05 0)
(1.0000787881904 -0.0001366879535544 0)
(1.0001579121894 -0.00019322092138572 0)
(1.0002650164049 -0.00024864839656197 0)
(1.0003991575826 -0.00030208613194847 0)
(1.0005591398909 -0.00035281810910764 0)
(1.0007434538774 -0.00040040900675104 0)
(1.0009501883026 -0.00044509155808316 0)
(1.0011776554128 -0.00048744317226462 0)
(1.0014244946391 -0.00052750838776892 0)
(1.0016896317528 -0.00056487062951909 0)
(1.0019725670879 -0.00059967759478923 0)
(1.0022736276448 -0.00063305500998345 0)
(1.0025925757518 -0.00066586613148945 0)
(1.0029266776375 -0.00069787734463058 0)
(1.0032724521055 -0.00072741303935179 0)
(1.0036302354852 -0.0007529613365207 0)
(1.0040023340186 -0.00077381088040845 0)
(1.0043872528285 -0.00079252283269718 0)
(1.0047796987643 -0.00081261955933141 0)
(1.0051793662978 -0.000840725759113 0)
(1.0055929861907 -0.00087945342094437 0)
(1.0060309736447 -0.0009343705006126 0)
(1.0064997343729 -0.0010002938369072 0)
(1.0070057901683 -0.0010814824104086 0)
(1.0075512525249 -0.0011607661791643 0)
(1.0081408748146 -0.0012492825826137 0)
(1.0087681718927 -0.0013131849320822 0)
(1.0094335296294 -0.0013891479241315 0)
(1.0000004343882 -7.7662024694989e-05 0)
(1.0000268087709 -0.00023781056995785 0)
(1.0000793218059 -0.00040402755742381 0)
(1.0001599627087 -0.00057179534731151 0)
(1.0002692559025 -0.00073640857330743 0)
(1.000406365488 -0.00089494603981943 0)
(1.0005700335532 -0.0010456509153687 0)
(1.0007588856971 -0.001187475984027 0)
(1.0009710812376 -0.0013204195133773 0)
(1.001204539051 -0.0014456063245191 0)
(1.0014574849683 -0.0015640025478119 0)
(1.0017287223058 -0.0016756084057029 0)
(1.0020181628574 -0.0017802641754708 0)
(1.0023271707114 -0.0018792220864992 0)
(1.0026553739253 -0.0019742967577987 0)
(1.0029982393228 -0.0020665625825461 0)
(1.0033512082474 -0.0021534502731106 0)
(1.003716308606 -0.0022308451185952 0)
(1.004097246735 -0.0022944540789692 0)
(1.0044921678307 -0.0023489412170099 0)
(1.0048935358234 -0.0024038369292324 0)
(1.0053012148755 -0.0024804252836014 0)
(1.0057215160363 -0.0025901128230571 0)
(1.0061674464721 -0.0027520601300507 0)
(1.0066439070868 -0.0029522723524856 0)
(1.0071620187201 -0.0032010665528741 0)
(1.0077189022919 -0.0034463461711109 0)
(1.0083278482643 -0.003716665187129 0)
(1.0089690882441 -0.0039133417674831 0)
(1.0096615862093 -0.0041396150396235 0)
(1.0000004705962 -0.00012749802920645 0)
(1.0000282543279 -0.00039080238134767 0)
(1.0000835315336 -0.00066465821301425 0)
(1.0001683189049 -0.00094155334260086 0)
(1.0002831605635 -0.0012133519941553 0)
(1.000427249405 -0.0014751030920715 0)
(1.0005993093439 -0.0017241797533528 0)
(1.0007979954092 -0.0019589128983019 0)
(1.0010213117487 -0.002178861463563 0)
(1.0012668787902 -0.0023855054719517 0)
(1.001532710976 -0.0025807111376356 0)
(1.0018174950731 -0.002764996219963 0)
(1.002121396697 -0.0029378827822765 0)
(1.0024466189404 -0.0031007061108588 0)
(1.0027925428488 -0.0032564003259914 0)
(1.0031531133537 -0.0034075283443488 0)
(1.0035228942445 -0.0035505560392084 0)
(1.003905508011 -0.0036786005597518 0)
(1.0043055358082 -0.0037835640340357 0)
(1.0047209092401 -0.0038719109922536 0)
(1.0051419878014 -0.0039588239633313 0)
(1.0055696106574 -0.0040803695013759 0)
(1.0060089949325 -0.0042572355554636 0)
(1.0064763427786 -0.0045231269653633 0)
(1.0069727350082 -0.0048553665985754 0)
(1.007515948776 -0.0052706024614095 0)
(1.0080937972245 -0.0056803964221467 0)
(1.008734706114 -0.0061313898102102 0)
(1.009395341572 -0.0064573082034636 0)
(1.0101302120814 -0.0068316072288617 0)
(1.0000004936954 -0.00017716730903774 0)
(1.0000299625816 -0.00054348287344384 0)
(1.000088725286 -0.00092506281204838 0)
(1.0001789836833 -0.0013112397928514 0)
(1.0003013303061 -0.0016904270695029 0)
(1.0004549494549 -0.0020557402865933 0)
(1.0006385075824 -0.0024036224423413 0)
(1.0008505509746 -0.0027316339371769 0)
(1.0010888632849 -0.0030388688221779 0)
(1.0013509200613 -0.0033271543661343 0)
(1.0016345917893 -0.0035991311404045 0)
(1.0019383062557 -0.0038557696550845 0)
(1.0022622384342 -0.0040964817903486 0)
(1.0026093464728 -0.0043230125514613 0)
(1.0029790119255 -0.0045394327936241 0)
(1.0033641669653 -0.0047495625606094 0)
(1.0037584617388 -0.0049487551701954 0)
(1.004166730209 -0.0051275815338309 0)
(1.0045939952873 -0.0052744014640113 0)
(1.0050384345628 -0.0053975318700065 0)
(1.005488264194 -0.0055171850416229 0)
(1.0059457461663 -0.0056836982277225 0)
(1.0064140036561 -0.005926440685632 0)
(1.0069134496636 -0.0062940734501114 0)
(1.0074394216407 -0.0067550165704828 0)
(1.0080191359683 -0.0073334518961354 0)
(1.0086265592177 -0.0079033817497385 0)
(1.0093122385836 -0.0085315637257241 0)
(1.009998472383 -0.0089804983194114 0)
(1.0107922398702 -0.009499481359895 0)
(1.0000005196784 -0.00022700234183091 0)
(1.0000319873387 -0.00069701411672512 0)
(1.0000948824478 -0.0011873986314343 0)
(1.0001916512159 -0.0016841864333881 0)
(1.0003229687233 -0.0021722303800154 0)
(1.0004880036508 -0.0026426398370446 0)
(1.0006853880644 -0.0030908682842502 0)
(1.0009135850052 -0.0035136821901989 0)
(1.0011701803498 -0.0039096810375551 0)
(1.0014525302392 -0.0042809368038386 0)
(1.0017582616068 -0.004630735262152 0)
(1.0020853946003 -0.0049605428141419 0)
(1.0024340431235 -0.0052698962234382 0)
(1.0028078765836 -0.0055611251094558 0)
(1.0032061492622 -0.0058393214152269 0)
(1.0036208623895 -0.0061093971615637 0)
(1.0040448274518 -0.0063655497408927 0)
(1.0044841344012 -0.0065959679991409 0)
(1.0049439979148 -0.0067854139290054 0)
(1.0054230448863 -0.0069438763726553 0)
(1.0059072119455 -0.0070960009729742 0)
(1.0064006531377 -0.0073062211814857 0)
(1.006903905592 -0.0076123198296127 0)
(1.0074428792381 -0.0080787127935179 0)
(1.0080064402981 -0.0086648246220474 0)
(1.0086338005224 -0.0094036589214371 0)
(1.0092819589185 -0.010130018380475 0)
(1.0100281500817 -0.01093327066726 0)
(1.0107517323678 -0.011499477135073 0)
(1.0116239591364 -0.012162497843502 0)
(1.0000005454596 -0.00027720068164035 0)
(1.0000342251668 -0.00085207310428638 0)
(1.0001017112712 -0.0014529258891363 0)
(1.0002057478967 -0.0020623273522259 0)
(1.0003471382878 -0.002661420184714 0)
(1.0005249786872 -0.0032391675843376 0)
(1.0007378339725 -0.003789943928739 0)
(1.0009840848178 -0.0043097492307343 0)
(1.0012610424835 -0.0047966768138378 0)
(1.0015659524234 -0.0052528669561173 0)
(1.0018963301278 -0.0056820864408945 0)
(1.0022498489881 -0.0060863850055618 0)
(1.0026265022964 -0.0064656341173481 0)
(1.0030306904103 -0.006822856520824 0)
(1.0034616783103 -0.0071641302535974 0)
(1.0039108164586 -0.0074955873940738 0)
(1.0043701445009 -0.0078105065527609 0)
(1.0048468448646 -0.0080949078225627 0)
(1.0053459225686 -0.0083295385204946 0)
(1.0058665869395 -0.008525567480073 0)
(1.0063927373867 -0.0087114821057475 0)
(1.0069309603399 -0.0089667167982523 0)
(1.0074787244214 -0.0093380865863623 0)
(1.0080669983745 -0.0099078313187642 0)
(1.0086764996901 -0.010624984918678 0)
(1.0093580109874 -0.011532224943427 0)
(1.0100499693262 -0.012419598875401 0)
(1.0108579675798 -0.013401230893126 0)
(1.0116168783242 -0.014079218785099 0)
(1.0125681783623 -0.014879876565974 0)
(1.0000005702465 -0.00032776922197639 0)
(1.0000365547596 -0.0010087126925088 0)
(1.000108857638 -0.0017218187727188 0)
(1.0002205537458 -0.0024459955298203 0)
(1.00037257849 -0.0031584716039398 0)
(1.0005639737527 -0.0038459760191027 0)
(1.000793293368 -0.0045017520168058 0)
(1.0010588710294 -0.0051209681214687 0)
(1.0013577722083 -0.0057011599262219 0)
(1.0016871792633 -0.0062445089929717 0)
(1.0020444798014 -0.0067551822897834 0)
(1.0024269127449 -0.0072357097575212 0)
(1.0028341375203 -0.0076863563202317 0)
(1.0032710111002 -0.0081112061908918 0)
(1.0037367397834 -0.008517628046218 0)
(1.0042223750985 -0.0089128648176379 0)
(1.004719330347 -0.0092887299684014 0)
(1.0052356983359 -0.0096289974682506 0)
(1.0057759519857 -0.0099109458068277 0)
(1.006340483107 -0.010148117780219 0)
(1.0069115603716 -0.010372673822947 0)
(1.0074989938426 -0.010677866619528 0)
(1.0080958274004 -0.011115730033479 0)
(1.0087383530461 -0.011784493288412 0)
(1.0093955728372 -0.012620056906135 0)
(1.0101327468879 -0.01367913024645 0)
(1.01086344115 -0.014707387620862 0)
(1.0117323340866 -0.015853643070833 0)
(1.0125157469008 -0.016632816492858 0)
(1.0135510280194 -0.017573819581722 0)
(1.000000591484 -0.00037854759288793 0)
(1.000038867268 -0.0011664887816564 0)
(1.0001160020861 -0.0019933576322953 0)
(1.0002354282362 -0.0028341936123769 0)
(1.000398244396 -0.0036621611332039 0)
(1.0006034406056 -0.0044616774990228 0)
(1.0008495321765 -0.0052247529831297 0)
(1.0011347919994 -0.0059456812137018 0)
(1.0014560246703 -0.0066214845959367 0)
(1.0018103313655 -0.0072543420813655 0)
(1.0021950043555 -0.0078485914996468 0)
(1.0026069808924 -0.0084071288930563 0)
(1.0030457234838 -0.0089308737852963 0)
(1.0035166217483 -0.0094254138615672 0)
(1.0040188368712 -0.0098994265096721 0)
(1.0045432452748 -0.010360853318664 0)
(1.0050807330404 -0.010799682084862 0)
(1.005640432347 -0.011197924283415 0)
(1.0062261393085 -0.011530241352759 0)
(1.0068393947111 -0.011813177683818 0)
(1.0074602935721 -0.012081550805323 0)
(1.0081020283255 -0.012440599409942 0)
(1.0087528710173 -0.012944926291818 0)
(1.0094564066856 -0.013708001338665 0)
(1.0101695880967 -0.014652550275121 0)
(1.0109759603369 -0.015852541315903 0)
(1.0117597980199 -0.017010445019983 0)
(1.0127115380297 -0.018315441483788 0)
(1.0135348654058 -0.019190181736167 0)
(1.0146809253429 -0.020278845743896 0)
(1.000000607832 -0.00042925309466727 0)
(1.0000410515523 -0.0013245375313188 0)
(1.0001228054442 -0.0022660959030751 0)
(1.0002496854336 -0.0032249346571225 0)
(1.000422958791 -0.0041699760532114 0)
(1.0006415439833 -0.0050832290445689 0)
(1.0009039482831 -0.005955443520394 0)
(1.0012084699351 -0.0067800248267426 0)
(1.0015517313812 -0.0075533859842479 0)
(1.0019307955777 -0.0082775647958907 0)
(1.0023428932601 -0.008957044694559 0)
(1.0027846827091 -0.0095952224440513 0)
(1.0032552893286 -0.010193763717646 0)
(1.0037603601153 -0.010759799109499 0)
(1.0042989463473 -0.011303398268563 0)
(1.004862117433 -0.011833518312099 0)
(1.0054405596021 -0.012338552437983 0)
(1.006044395351 -0.012798844580383 0)
(1.0066763821708 -0.013185970781519 0)
(1.0073390841228 -0.01351925576183 0)
(1.0080105044809 -0.01383582424443 0)
(1.0087077796285 -0.014253858157138 0)
(1.0094151550452 -0.014830480270914 0)
(1.0101842795532 -0.015695572031883 0)
(1.0109602561074 -0.016756257029603 0)
(1.0118438369594 -0.01810417433636 0)
(1.012689282569 -0.019393725675849 0)
(1.0137302478149 -0.020857064343453 0)
(1.0145990908711 -0.021819602439578 0)
(1.015858373545 -0.023048679123892 0)
(1.0000006184001 -0.00047950855074291 0)
(1.0000429980199 -0.0014817006659066 0)
(1.0001289495046 -0.0025380684402262 0)
(1.0002626865089 -0.0036154395425279 0)
(1.0004456477321 -0.0046783214946973 0)
(1.0006767252869 -0.0057062507425361 0)
(1.0009544482253 -0.0066887337663024 0)
(1.0012771217383 -0.007618255162691 0)
(1.001641201891 -0.0084905195437468 0)
(1.00204372164 -0.0093074236974917 0)
(1.0024818280864 -0.010073684012779 0)
(1.002951971495 -0.010793174993159 0)
(1.0034530281274 -0.011468155375481 0)
(1.0039908897116 -0.012107416320169 0)
(1.0045645584545 -0.012722854525842 0)
(1.0051655743997 -0.013324816981466 0)
(1.0057845161996 -0.013899736007333 0)
(1.0064323572565 -0.014425598047959 0)
(1.0071106072478 -0.0148704308209 0)
(1.0078232666689 -0.015257295581172 0)
(1.008546360984 -0.015626665845234 0)
(1.0093015562027 -0.016110691584683 0)
(1.0100678504169 -0.016766794499798 0)
(1.0109057484532 -0.017739370127659 0)
(1.0117452081847 -0.018914632650314 0)
(1.0127077655021 -0.020403421294588 0)
(1.0136111000236 -0.02180867577153 0)
(1.014742846721 -0.023416189780053 0)
(1.0156504684094 -0.024449256669025 0)
(1.0170301081748 -0.025815342824137 0)
(1.0000006214453 -0.00052887869664373 0)
(1.0000446112788 -0.0016366397708719 0)
(1.0001341534969 -0.0028069777757324 0)
(1.0002738502088 -0.0040024297282319 0)
(1.0004653124222 -0.0051829673337891 0)
(1.0007074379854 -0.0063256078907038 0)
(1.0009987692377 -0.0074186394413159 0)
(1.0013376186105 -0.0084536390487377 0)
(1.0017203713571 -0.0094255415568567 0)
(1.002144114653 -0.01033601583631 0)
(1.0026059513567 -0.011189939852654 0)
(1.0031021773717 -0.011991675271413 0)
(1.0036314301912 -0.012744179717956 0)
(1.0041998020802 -0.013458100267484 0)
(1.0048063012588 -0.014147266621324 0)
(1.0054430633518 -0.014823466457759 0)
(1.0061005492477 -0.015471158026654 0)
(1.0067905670796 -0.016066183699109 0)
(1.0075135891626 -0.016573245285598 0)
(1.0082755961198 -0.017019418394182 0)
(1.0090506621184 -0.017448108476709 0)
(1.0098647625024 -0.018004654541743 0)
(1.0106903064944 -0.018745267984378 0)
(1.0115972497522 -0.019828122918207 0)
(1.0124992813566 -0.02111766982651 0)
(1.0135432383912 -0.022745800289279 0)
(1.0145066638276 -0.024262815851255 0)
(1.0157408813786 -0.026015066540618 0)
(1.0166950316024 -0.027114116590127 0)
(1.0182186816723 -0.028628295664095 0)
(1.0000006156082 -0.00057690377621388 0)
(1.0000458070549 -0.0017879262660392 0)
(1.0001381554572 -0.0030703530741122 0)
(1.0002826353748 -0.004382356292371 0)
(1.0004810338552 -0.0056793101835905 0)
(1.0007322787708 -0.0069356742165852 0)
(1.0010349447946 -0.0081385108674834 0)
(1.001387388615 -0.0092785300859677 0)
(1.0017860025284 -0.010349905471422 0)
(1.0022279809457 -0.011353978877488 0)
(1.002710412026 -0.012295682890458 0)
(1.0032294555158 -0.013179975539397 0)
(1.0037835131299 -0.014010777899432 0)
(1.0043788501897 -0.014800730009608 0)
(1.0050145529199 -0.015565434062972 0)
(1.0056834872992 -0.016318004155919 0)
(1.0063761209168 -0.017041151527144 0)
(1.0071050778454 -0.017709238219097 0)
(1.0078698917386 -0.018284001783879 0)
(1.0086786819093 -0.01879629044436 0)
(1.0095038583833 -0.01929114624649 0)
(1.0103755694407 -0.019926018894704 0)
(1.011259715857 -0.020754940967223 0)
(1.0122354187549 -0.02195072091393 0)
(1.0132009059939 -0.023356343212074 0)
(1.0143280490467 -0.025127037020798 0)
(1.0153555061055 -0.02675864412501 0)
(1.0166972530232 -0.028661789346803 0)
(1.0177049519287 -0.029828112970118 0)
(1.0193814505025 -0.031499453508926 0)
(1.0000006004604 -0.00062312845772036 0)
(1.000046516116 -0.0019341242912468 0)
(1.0001407398636 -0.0033256959460352 0)
(1.0002886049586 -0.004751615877978 0)
(1.0004920772028 -0.0061626281565779 0)
(1.0007501365784 -0.0075306200616651 0)
(1.0010614152848 -0.0088414602502288 0)
(1.0014243359363 -0.010085063504761 0)
(1.0018353390164 -0.011254855715895 0)
(1.0022917413474 -0.012351762784278 0)
(1.0027906585515 -0.013380705583155 0)
(1.0033281962737 -0.014347331053798 0)
(1.0039026001881 -0.01525670961118 0)
(1.0045202412309 -0.016123542065223 0)
(1.0051803212261 -0.016965103793123 0)
(1.0058765849826 -0.017795759849537 0)
(1.0065997482404 -0.018596684558665 0)
(1.0073631873674 -0.019341270582284 0)
(1.0081655199094 -0.019988669967972 0)
(1.0090170391179 -0.020573456390577 0)
(1.0098888612799 -0.02114140719479 0)
(1.0108154626051 -0.021861348446903 0)
(1.0117565005721 -0.02278387969631 0)
(1.0128002269145 -0.024097044482805 0)
(1.0138293594449 -0.025621484033396 0)
(1.0150405274883 -0.027538366048139 0)
(1.0161329641288 -0.029286504226868 0)
(1.0175835274004 -0.031345982659327 0)
(1.0186456916043 -0.032581088403026 0)
(1.0204778655043 -0.034418548213645 0)
(1.000000575423 -0.00066712418332537 0)
(1.0000466890685 -0.0020738728699939 0)
(1.0001417569015 -0.0035706225332371 0)
(1.0002914440966 -0.0051067451783736 0)
(1.0004978876579 -0.0066283623941733 0)
(1.000760134476 -0.0081048161221459 0)
(1.0010768939096 -0.0095208417797143 0)
(1.0014466699851 -0.010865625830674 0)
(1.0018660024863 -0.012131847491787 0)
(1.0023323625299 -0.013319938029865 0)
(1.0028429738904 -0.014434759844153 0)
(1.0033939647778 -0.015482712347969 0)
(1.0039835066712 -0.016470180853632 0)
(1.0046179593351 -0.017413985676865 0)
(1.0052967388961 -0.018333064480937 0)
(1.006014533323 -0.019242968303246 0)
(1.0067625994392 -0.020123618842201 0)
(1.0075548191087 -0.020947794438776 0)
(1.0083890873228 -0.021672557363473 0)
(1.009277707867 -0.022336070916222 0)
(1.0101910541729 -0.022984367696281 0)
(1.011167866803 -0.023796767980519 0)
(1.0121618887354 -0.024819413472752 0)
(1.0132705350073 -0.026255538010864 0)
(1.0143608178374 -0.02790257603619 0)
(1.0156545619325 -0.029969536818109 0)
(1.01681033379 -0.031836251830457 0)
(1.0183697156491 -0.034056898255898 0)
(1.0194854670071 -0.03536277277786 0)
(1.0214757775478 -0.037375180130509 0)
(1.0000005406504 -0.00070851106633736 0)
(1.0000462960595 -0.0022059540066854 0)
(1.0001411064471 -0.0038029781682309 0)
(1.0002909359796 -0.0054445851232624 0)
(1.0004980807187 -0.007072333052879 0)
(1.0007616675635 -0.0086530836253079 0)
(1.0010805048974 -0.010170493817765 0)
(1.001453192388 -0.011613063293205 0)
(1.001876425348 -0.012972733772045 0)
(1.0023478622594 -0.01424940940299 0)
(1.0028649098312 -0.015447884653756 0)
(1.0034237445754 -0.016575374533516 0)
(1.0040225263329 -0.017639731159644 0)
(1.0046674471291 -0.018659940163461 0)
(1.0053582907284 -0.019656631379522 0)
(1.0060906637513 -0.02064645341252 0)
(1.0068568489678 -0.021608419272815 0)
(1.0076708295802 -0.022514853708156 0)
(1.0085303842235 -0.023321408771285 0)
(1.0094491016638 -0.024069325159127 0)
(1.0103977946986 -0.024805035979513 0)
(1.0114183860122 -0.025716835618094 0)
(1.012460046107 -0.026846245795612 0)
(1.013628247618 -0.028410795325284 0)
(1.0147751568457 -0.030184394213115 0)
(1.0161475576027 -0.032405277216452 0)
(1.0173628721347 -0.034392804818597 0)
(1.0190288214393 -0.036779672855742 0)
(1.0201960549406 -0.038159374601831 0)
(1.0223450222611 -0.040356653794838 0)
(1.0000004967233 -0.00074697207435564 0)
(1.000045329197 -0.0023293375130274 0)
(1.0001387526269 -0.0040209135151767 0)
(1.0002869875736 -0.0057623900970729 0)
(1.0004924757395 -0.0074908684212956 0)
(1.0007544430623 -0.0091708285498795 0)
(1.001071823529 -0.010784908482679 0)
(1.0014433213796 -0.012320965535065 0)
(1.00186581651 -0.013770237513762 0)
(1.0023371537124 -0.015132101948849 0)
(1.0028549542018 -0.016411278536325 0)
(1.0034154999018 -0.01761582478276 0)
(1.0040170187017 -0.018755145428095 0)
(1.0046654814591 -0.019850423862041 0)
(1.0053611174292 -0.020924001531785 0)
(1.0061004670651 -0.021993605590495 0)
(1.0068771359112 -0.023037641858296 0)
(1.0077049246568 -0.024028200546615 0)
(1.0085820897691 -0.024920163635186 0)
(1.009522688763 -0.025757325052482 0)
(1.0104995772467 -0.02658699739616 0)
(1.0115555188774 -0.027604302066873 0)
(1.0126385283762 -0.028847468711377 0)
(1.0138575932524 -0.030545011598226 0)
(1.0150556805337 -0.032450346866241 0)
(1.0164989251982 -0.034828498819277 0)
(1.017768545135 -0.036940218466049 0)
(1.0195364198816 -0.039499588383839 0)
(1.0207512982491 -0.040957494134291 0)
(1.0230577293755 -0.043351013372969 0)
(1.0000004442941 -0.00078225857619334 0)
(1.0000438000656 -0.002443197986725 0)
(1.0001347249476 -0.0042229235466895 0)
(1.0002796419018 -0.006057903507854 0)
(1.0004811124679 -0.0078809267676544 0)
(1.0007384656942 -0.0096542147486311 0)
(1.001050776029 -0.011359452043953 0)
(1.001416865628 -0.012983900547249 0)
(1.0018338437697 -0.014518147091841 0)
(1.0022997567273 -0.015961067593419 0)
(1.0028124681999 -0.017317313362022 0)
(1.0033684393015 -0.018595770139029 0)
(1.0039660035452 -0.019807423889427 0)
(1.0046108582799 -0.020975653414791 0)
(1.0053036395096 -0.022124560565441 0)
(1.0060419100927 -0.023273022764491 0)
(1.0068206879107 -0.024399133581304 0)
(1.0076536165362 -0.02547500835666 0)
(1.0085395889653 -0.026455124630319 0)
(1.0094930268308 -0.027385529689346 0)
(1.0104893586893 -0.028314445582267 0)
(1.0115711308404 -0.029442314502141 0)
(1.0126869921946 -0.030805054411287 0)
(1.0139463366536 -0.032638945116737 0)
(1.0151881208813 -0.034681484568607 0)
(1.0166909787008 -0.037218691948268 0)
(1.0180091387967 -0.039460503820505 0)
(1.0198700918805 -0.042198588232137 0)
(1.0211284017143 -0.043740581817605 0)
(1.0235886817772 -0.046343982821268 0)
(1.0000003844496 -0.000814196115384 0)
(1.000041737713 -0.0025469326396926 0)
(1.0001290960624 -0.0044078833702454 0)
(1.0002690257776 -0.0063294146075337 0)
(1.0004641806434 -0.0082401782202041 0)
(1.0007139915665 -0.010100280200437 0)
(1.0010176806823 -0.011890518048564 0)
(1.0013741963064 -0.013597584936719 0)
(1.0017809030446 -0.015211457552972 0)
(1.0022360448994 -0.016730550249388 0)
(1.0027377466749 -0.018159505182179 0)
(1.0032827524772 -0.019508040503863 0)
(1.0038695602848 -0.020788741878116 0)
(1.0045035532148 -0.02202712840952 0)
(1.005185670287 -0.023249110498846 0)
(1.0059145764567 -0.024474826862452 0)
(1.0066867308413 -0.02568240287596 0)
(1.0075157972139 -0.026844232023897 0)
(1.008401277425 -0.027914567534936 0)
(1.0093581301587 -0.028941380570906 0)
(1.0103640394866 -0.029973494358161 0)
(1.0114613313998 -0.031215688805577 0)
(1.0125989390485 -0.032701842537375 0)
(1.0138867305377 -0.034674606959847 0)
(1.0151605668085 -0.036858098150925 0)
(1.0167101906321 -0.039556290541429 0)
(1.0180673338719 -0.041934868869683 0)
(1.0200094639014 -0.044856577430513 0)
(1.0213055737412 -0.046492464825187 0)
(1.0239118286216 -0.049319088104066 0)
(1.0000003189923 -0.00084268665913389 0)
(1.0000391847984 -0.0026401737075665 0)
(1.0001219753536 -0.0045750711206675 0)
(1.0002553429372 -0.0065757871040915 0)
(1.0004420010449 -0.008567025966685 0)
(1.0006814753679 -0.010506937327547 0)
(1.0009731438146 -0.012375527162118 0)
(1.0013161149698 -0.014158946225797 0)
(1.0017080200437 -0.015846563820992 0)
(1.0021472560386 -0.017436347669884 0)
(1.0026321601832 -0.01893303590029 0)
(1.0031598610389 -0.020347213275821 0)
(1.0037291101636 -0.021693054596756 0)
(1.0043449676242 -0.02299806028033 0)
(1.0050085379676 -0.02428998138263 0)
(1.005719603209 -0.025590398660072 0)
(1.0064761029116 -0.026877935423493 0)
(1.0072919664163 -0.028125559609669 0)
(1.0081673725011 -0.029287303024716 0)
(1.0091179082265 -0.030412608693387 0)
(1.0101229337305 -0.031550366788308 0)
(1.0112244696794 -0.032908944695914 0)
(1.0123708768367 -0.034520455922348 0)
(1.0136732505506 -0.03663343077754 0)
(1.0149644491039 -0.038960516016645 0)
(1.0165452030898 -0.04182263124567 0)
(1.0179303928027 -0.044344652846013 0)
(1.0199349056096 -0.047459161991607 0)
(1.0212735092356 -0.049195343204392 0)
(1.0239937316981 -0.052273543683346 0)
(1.0000002490591 -0.00086769947051763 0)
(1.0000361878278 -0.0027227636094816 0)
(1.0001134987274 -0.0047241372357094 0)
(1.0002388640902 -0.0067964333296599 0)
(1.0004150144972 -0.0088605942552284 0)
(1.0006415547313 -0.010872973342972 0)
(1.000918014422 -0.012812926181386 0)
(1.0012437187184 -0.014666094810774 0)
(1.0016165673901 -0.016421204387927 0)
(1.0020350732931 -0.018075767741739 0)
(1.0024977000444 -0.019634789127296 0)
(1.0030020814757 -0.021109772091152 0)
(1.0035472972462 -0.022516383646391 0)
(1.0041380703544 -0.023883776216928 0)
(1.0047754538469 -0.025241608379952 0)
(1.0054602954925 -0.026613231549766 0)
(1.0061920761014 -0.027978501983563 0)
(1.0069853458291 -0.029311155332551 0)
(1.0078411022683 -0.030564754151064 0)
(1.0087754956607 -0.031789188700171 0)
(1.0097686699482 -0.03303270801783 0)
(1.0108618000261 -0.034506635426277 0)
(1.0120019943855 -0.036241881038331 0)
(1.0133018633399 -0.038494012250028 0)
(1.0145931281847 -0.040964537067992 0)
(1.0161856294359 -0.043995590014031 0)
(1.0175871564505 -0.046665247221194 0)
(1.0196343015312 -0.049989336165182 0)
(1.0210181629404 -0.051834998485251 0)
(1.0238338926775 -0.05518857174535 0)
(1.000000173385 -0.00088926224859084 0)
(1.0000327847874 -0.0027947089571657 0)
(1.0001037916624 -0.0048550071598337 0)
(1.0002198654193 -0.0069911692799978 0)
(1.0003837077026 -0.0091205640061247 0)
(1.0005949707579 -0.011197901373346 0)
(1.0008533185741 -0.013202057092322 0)
(1.0011583458966 -0.01511817717622 0)
(1.0015082244133 -0.016934252037882 0)
(1.0019015494072 -0.01864732497289 0)
(1.0023368470013 -0.020262943368818 0)
(1.0028123653507 -0.021793648211563 0)
(1.0033275679805 -0.023256381110718 0)
(1.0038867306524 -0.02468137979392 0)
(1.0044906375869 -0.026100205189882 0)
(1.0051410642546 -0.027538449102605 0)
(1.0058392743724 -0.028978363889156 0)
(1.0066008045693 -0.030394588940242 0)
(1.0074278345666 -0.031739919623362 0)
(1.0083366075998 -0.033062805997293 0)
(1.0093072655811 -0.034410210281047 0)
(1.0103786423995 -0.035995507921376 0)
(1.0114967964223 -0.037849788207048 0)
(1.0127752271929 -0.040237677517894 0)
(1.0140477678913 -0.042850145891409 0)
(1.0156323116372 -0.046055157487325 0)
(1.017035227879 -0.048878764739515 0)
(1.0191109891745 -0.052426608266523 0)
(1.0205344105192 -0.05439941210552 0)
(1.0234450039146 -0.058047732016474 0)
(1.0000000877503 -0.00090750459263435 0)
(1.0000290584044 -0.0028562507027183 0)
(1.0000930432316 -0.0049678686465704 0)
(1.0001986657642 -0.0071600387121218 0)
(1.0003485956286 -0.0093468093973828 0)
(1.0005425196517 -0.011481432414882 0)
(1.0007802072742 -0.013542493823444 0)
(1.0010615249668 -0.015514633892532 0)
(1.0013849461446 -0.017384941030843 0)
(1.001749079452 -0.019149934706212 0)
(1.0021524974641 -0.020815999090293 0)
(1.002594096092 -0.022396899270098 0)
(1.0030738980516 -0.023910598596279 0)
(1.0035955838745 -0.025387821308111 0)
(1.0041596392496 -0.026862018482093 0)
(1.0047682364275 -0.028361508781736 0)
(1.0054246998574 -0.029872143644481 0)
(1.0061452255182 -0.031369043929529 0)
(1.0069342629025 -0.032803693336487 0)
(1.0078067054655 -0.03422021198605 0)
(1.0087439320057 -0.035664556791347 0)
(1.0097792840511 -0.037351044694165 0)
(1.0108614457644 -0.039315535720149 0)
(1.01210056962 -0.041832233526406 0)
(1.0133397508169 -0.044586443667581 0)
(1.0148996470796 -0.047970935736613 0)
(1.0162928368222 -0.050959258254259 0)
(1.0183854209689 -0.054743536424687 0)
(1.0198377300664 -0.056857675726515 0)
(1.0228403442273 -0.060806419449028 0)
(0.99999999749636 -0.00092280362257646 0)
(1.0000253274766 -0.0029083430002839 0)
(1.000081887363 -0.00506389169557 0)
(1.000176116901 -0.0073041845918787 0)
(1.0003107039998 -0.0095403015742955 0)
(1.0004854376136 -0.011724235767559 0)
(1.0007001850141 -0.013834540269155 0)
(1.0009550763061 -0.015855488133844 0)
(1.0012489971769 -0.017773166742057 0)
(1.0015805504224 -0.019583473062902 0)
(1.0019483035246 -0.021293784751562 0)
(1.002351577384 -0.022919179193878 0)
(1.0027910194633 -0.02447833083694 0)
(1.0032696614726 -0.026001779513178 0)
(1.003788150531 -0.027524919070317 0)
(1.0043486447854 -0.029079559791098 0)
(1.0049569662964 -0.030656962876791 0)
(1.005628569079 -0.032232231045186 0)
(1.0063719355221 -0.033754719036513 0)
(1.0071973531381 -0.035259725789206 0)
(1.0080917464459 -0.036792398415118 0)
(1.0090755176283 -0.038564278922768 0)
(1.0101123450374 -0.040623435249032 0)
(1.0112928664625 -0.04325186668571 0)
(1.0124943014006 -0.046141583455874 0)
(1.0140059816175 -0.049705793523093 0)
(1.0153937101943 -0.052865311580738 0)
(1.017474915097 -0.056914188384621 0)
(1.0189645219768 -0.059140522237356 0)
(1.0220142654159 -0.063481154775073 0)
(0.99999991237443 -0.0009358854079964 0)
(1.000022100552 -0.0029533181043443 0)
(1.0000714087548 -0.005146867102433 0)
(1.0001536862314 -0.0074289680344077 0)
(1.0002717903206 -0.0097081657116356 0)
(1.0004257347768 -0.011935227022755 0)
(1.0006153725567 -0.014088697791974 0)
(1.0008410668118 -0.016152732552623 0)
(1.0011023916707 -0.018112598857665 0)
(1.0013982018233 -0.019963620251466 0)
(1.0017270702977 -0.021714291633141 0)
(1.0020884202849 -0.023381234191913 0)
(1.0024835298802 -0.024983920266817 0)
(1.0029148222588 -0.026552303646391 0)
(1.0033830823767 -0.028123239490264 0)
(1.0038893912242 -0.029731906624878 0)
(1.0044420110504 -0.031376386842561 0)
(1.0050550351734 -0.033032894960708 0)
(1.005743917167 -0.03465026384503 0)
(1.0065134420169 -0.036252875166754 0)
(1.0073618446378 -0.037888256903314 0)
(1.0082865582588 -0.039761257492001 0)
(1.0092789567539 -0.041941834937824 0)
(1.0103831204396 -0.044700818960757 0)
(1.0115516580404 -0.047759995771028 0)
(1.0129733990273 -0.051521185408961 0)
(1.0143688536627 -0.054903051419472 0)
(1.0163563983386 -0.059266793939131 0)
(1.0179671039461 -0.06165776292618 0)
(1.0209689742703 -0.066735540020358 0)
(0.99999976541838 -0.00094816254520785 0)
(1.0000185712988 -0.0029959113233639 0)
(1.0000605412841 -0.0052273549583474 0)
(1.0001301877462 -0.0075527718130724 0)
(1.0002310207081 -0.0098771440675656 0)
(1.0003637351703 -0.012149082618806 0)
(1.0005277911873 -0.014347200327407 0)
(1.0007233000528 -0.01645573671471 0)
(1.0009504793608 -0.018459221713657 0)
(1.0012088009083 -0.020352321511894 0)
(1.0014969475986 -0.022144723109472 0)
(1.0018140295313 -0.023855344046225 0)
(1.0021618362279 -0.025505500288014 0)
(1.00254346311 -0.027125340890574 0)
(1.0029608157105 -0.028753361869481 0)
(1.0034135347673 -0.03042767490266 0)
(1.0039084142688 -0.032152497802467 0)
(1.0044567478164 -0.033903978407076 0)
(1.0050791343263 -0.035632366936545 0)
(1.0057833467068 -0.037350831546593 0)