/*--------------------------------*- C++ -*----------------------------------*\
| =========                 |                                                 |
| \\      /  F ield         | OpenFOAM: The Open Source CFD Toolbox           |
|  \\    /   O peration     | Version:  2112                                  |
|   \\  /    A nd           | Website:  www.openfoam.com                      |
|    \\/     M anipulation  |                                                 |
\*---------------------------------------------------------------------------*/
FoamFile
{
    version     2.0;
    format      ascii;
    arch        "LSB;label=32;scalar=64";
    class       volScalarField;
    location    "9.3";
    object      p;
}
// * * * * * * * * * * * * * * * * * * * * * * * * * * * * * * * * * * * * * //

dimensions      [0 2 -2 0 0 0 0];

internalField   nonuniform List<scalar> 
22000
(
-0.0087560979191509
-0.0087781338915701
-0.0088238354450951
-0.0088942574897249
-0.0089898967047191
-0.0091106737687445
-0.009256236595001
-0.0094262003341726
-0.0096202283621867
-0.0098380227843965
-0.010079287979975
-0.01034369216706
-0.010630852814876
-0.010940334480359
-0.011271662753052
-0.011624320298002
-0.011997761487106
-0.012391392495698
-0.012804600753473
-0.013236710244855
-0.013687047365985
-0.014154841800218
-0.014639375621082
-0.015139760523828
-0.015655275962199
-0.016184861772545
-0.016727889486318
-0.017283006564433
-0.017849888525761
-0.018426670793649
-0.0083409493036087
-0.0083644298570486
-0.0084121467845836
-0.0084850234628273
-0.008583578765156
-0.0087078002084509
-0.008857389726499
-0.0090319906993984
-0.0092312759882191
-0.0094549479075257
-0.0097027091555957
-0.0099742265500865
-0.010269118887657
-0.010586951932199
-0.01092725494842
-0.01128951021602
-0.011673175166918
-0.012077649308865
-0.012502322013142
-0.012946500098966
-0.013409514763821
-0.013890562958645
-0.014388944508864
-0.014903710039956
-0.015434193459157
-0.015979214645817
-0.016538293333563
-0.017109852501137
-0.017693924188715
-0.01828831873101
-0.007576414630694
-0.00760116546749
-0.007651348766464
-0.0077278473124991
-0.0078311467427733
-0.0079612292776775
-0.0081178092371229
-0.0083005453823611
-0.0085091229217819
-0.0087432518209625
-0.0090026404808522
-0.0092869598616617
-0.0095958345886199
-0.009928833151031
-0.010285489622982
-0.010665283136502
-0.011067674158635
-0.011492048998328
-0.011937800386062
-0.012404205020399
-0.012890603699377
-0.013396133373504
-0.013920125201666
-0.014461510643229
-0.01501971874444
-0.015593322491488
-0.016182103098911
-0.016783989684572
-0.017399661321925
-0.018026165956705
-0.0065056175400658
-0.0065318808783423
-0.0065851252939682
-0.0066662738148477
-0.0067758222900378
-0.006913748268818
-0.0070797632296912
-0.0072735310991135
-0.0074947494829848
-0.0077431422749836
-0.0080184317879258
-0.008320300027123
-0.0086483839759177
-0.0090022598762797
-0.0093814733026275
-0.009785504242319
-0.010213823652107
-0.01066580522223
-0.01114085321779
-0.011638207529241
-0.012157229503377
-0.012696976013441
-0.013256830110443
-0.013835558213947
-0.014432734871609
-0.015046588056274
-0.015677293648876
-0.016322098049716
-0.016982654839282
-0.017654964927779
-0.0051649488999891
-0.0051930084308346
-0.0052498969051365
-0.0053365962744063
-0.0054536280050318
-0.0056009740831051
-0.0057783481834107
-0.0059854241904394
-0.0062219196241367
-0.0064875825679868
-0.0067821615551739
-0.0071053621000766
-0.0074568468717966
-0.0078362121588306
-0.0082430290278649
-0.0086767895846424
-0.0091369901201568
-0.0096229999496682
-0.010134251053203
-0.010669948269114
-0.011229493135139
-0.011811851782861
-0.012416489063732
-0.013041970634444
-0.013688074900766
-0.01435259520483
-0.015036233227373
-0.015735355450007
-0.016452875739243
-0.017183407072198
-0.0035856602924155
-0.0036157220256219
-0.0036766750033504
-0.0037695681563626
-0.0038949557754632
-0.0040528332291724
-0.0042429274052691
-0.0044649347026958
-0.0047186067512566
-0.0050037311955273
-0.0053200996829705
-0.0056674588234939
-0.006045516330115
-0.0064539075968827
-0.0068922505107644
-0.0073600683264958
-0.0078569056945173
-0.0083821442969386
-0.0089352687618924
-0.0095154595701868
-0.010122186957693
-0.010754324501953
-0.011411456345494
-0.01209191952012
-0.01279575988014
-0.01352025148446
-0.014266752178347
-0.015030556410317
-0.015816122700614
-0.016616356716015
-0.0017956535285766
-0.001827830440167
-0.0018930822594591
-0.001992531556597
-0.0021267721027036
-0.002295822410876
-0.0024994359799691
-0.002737347849011
-0.0030093621307682
-0.0033153258904915
-0.0036550956203606
-0.0040284819507312
-0.0044352629981248
-0.0048751390256332
-0.0053478034698531
-0.0058528377659108
-0.0063898665088327
-0.0069583095792345
-0.007557738680713
-0.008187330681244
-0.0088466630602545
-0.0095345257078885
-0.01025066999718
-0.010993187406979
-0.011762464217401
-0.012555183424425
-0.013373499571731
-0.014211460307267
-0.015075363919746
-0.015956118667817
0.00017914780710347
0.00014483590843275
7.5238927806272e-05
-3.0844120108844e-05
-0.00017405300124074
-0.00035444056134124
-0.00057180268787039
-0.00082593209834437
-0.0011167071295536
-0.0014440580060019
-0.0018079322551885
-0.0022082325724767
-0.0026448386971989
-0.0031175481862563
-0.0036261661980163
-0.0041703676525368
-0.0047498976724083
-0.0053642500654426
-0.0060131285395858
-0.0066957385700339
-0.0074118152148691
-0.008160086428114
-0.0089405308218024
-0.0097509915630022
-0.010592280976439
-0.011460433986863
-0.012358552354721
-0.013279280899383
-0.014231061866851
-0.015202546085665
0.0023139305625121
0.0022775568964754
0.0022037565839332
0.0020912474864803
0.0019393375054677
0.001747926859354
0.0015171593847732
0.0012471633117178
0.00093796177003268
0.00058951460946375
0.00020175341146801
-0.00022534905178255
-0.00069181053474199
-0.00119756434874
-0.0017425703408919
-0.0023266400537239
-0.0029496882381581
-0.0036113282328555
-0.0043114509886166
-0.0050493350203341
-0.0058249354573794
-0.006636954828382
-0.0074856735387138
-0.0083687006453673
-0.009287374283762
-0.010237043135776
-0.011221917139853
-0.012233101947165
-0.013281493516031
-0.014353266389588
0.0045845117796358
0.0045462397955417
0.0044685612750126
0.004350111878226
0.0041901409393225
0.0039884882116815
0.0037452180918692
0.0034603570724972
0.0031338040190759
0.0027653802852322
0.002354864345022
0.0019020688436201
0.0014067978077926
0.00086893888040194
0.00028832909444059
-0.00033502982909733
-0.0010012786598884
-0.001710205555159
-0.0024619530491556
-0.0032559298790631
-0.0040923845629075
-0.004970046499561
-0.0058895851588179
-0.0068484092208166
-0.0078484999999599
-0.0088845082215466
-0.009961929379215
-0.011070231176312
-0.012223076507444
-0.013403985982541
0.0069671418834129
0.0069272196402736
0.006846160241733
0.0067225174692692
0.0065554760169973
0.0063448014648777
0.0060904596553933
0.0057923528460657
0.0054502299842215
0.0050637450309023
0.0046324903670462
0.004156081391353
0.0036341017221341
0.0030662134092617
0.002451998506692
0.0017912160173469
0.0010834378511129
0.00032863597315927
-0.00047365403268189
-0.0013230434064595
-0.0022201535586105
-0.0031638137799371
-0.0041551760108506
-0.0051915068332629
-0.0062755524763816
-0.007401287338067
-0.0085756804184462
-0.0097865245112102
-0.011050596779726
-0.012348666338825
0.0094385118865554
0.0093972630926726
0.0093134747922757
0.0091856200548935
0.0090128132690526
0.0087947329127208
0.0085312285556075
0.0082220574761728
0.0078667947917049
0.0074648995174361
0.0070157460431215
0.0065187157650261
0.0059731300213283
0.005378377367022
0.004733732463568
0.0040386509485495
0.0032923553090966
0.00249450163982
0.0016442344234207
0.00074164568379796
-0.00021433178664255
-0.0012227378725978
-0.0022852851794697
-0.0033992085266556
-0.0045681139654598
-0.0057853856491982
-0.0070595733167311
-0.0083769229313269
-0.0097574905623449
-0.011179693301686
0.011975897646685
0.011933709701183
0.011847975723996
0.011717089307981
0.011540089447265
0.011316556654037
0.011046209463081
0.010728642499984
0.010363236247394
0.0099492302260877
0.0094857520747047
0.0089719149936683
0.0084067390486341
0.0077892925264808
0.007118492651095
0.0063934289774783
0.0056129146263255
0.0047762059805613
0.0038819900412812
0.0029299506374715
0.0019185064640186
0.00084826375438505
-0.00028311532939399
-0.0014730184247357
-0.0027259275433185
-0.0040349384638334
-0.0054099609433692
-0.0068362751457082
-0.0083367212948282
-0.0098881151521798
0.014557389324612
0.014514696911028
0.0144279019626
0.014295318607478
0.014115906874228
0.013889141854117
0.013614600121189
0.013291699856448
0.01291961031663
0.012497331669918
0.012023721051205
0.011497594327631
0.01091763596029
0.010282552337601
0.0095908559350386
0.0088412135999077
0.0080319658831005
0.0071618959990628
0.0062291507159146
0.0052329131144472
0.0041709869508119
0.0030434977997086
0.0018473927883717
0.00058491396022032
-0.00074930189069644
-0.0021484467997828
-0.0036236490471451
-0.0051597421884975
-0.0067815219409346
-0.0084649498816498
0.017162165578488
0.017119434907859
0.017032526124267
0.016899680035792
0.016719779214495
0.016492189603835
0.016216338144841
0.015891456300696
0.015516490385627
0.015090187483648
0.014611117209358
0.014077776143422
0.013488485777002
0.012841556587203
0.012135055145319
0.011367176812764
0.010535730255494
0.0096389594621528
0.0086743876679273
0.0076406114022649
0.0065347073084821
0.0053562120920766
0.0041012133496354
0.0027714572003895
0.0013605044816291
-0.00012503042017629
-0.0016977992223023
-0.0033421619008556
-0.0050854557991453
-0.0069027221837748
0.019770748559804
0.019728461936229
0.019642415200231
0.019510789587695
0.019332396959917
0.019106493760481
0.018832353456133
0.018509016161767
0.018135200003306
0.017709391899796
0.017229864092128
0.016694780281067
0.01610208050722
0.015449655196484
0.014735093208519
0.013956079908626
0.013109841591049
0.012194026150477
0.011205457585357
0.010142065143733
0.0090000916494396
0.0077783739280424
0.0064720006109377
0.0050820800971279
0.0036009187922398
0.0020347780332093
0.0003692195814397
-0.0013798201743468
-0.0032426976682351
-0.0051939041084323
0.02236521675071
0.022323855503138
0.022239647028847
0.022110730438248
0.021935856974074
0.021714176473471
0.021444809032871
0.021126603902348
0.02075805279155
0.020337384179663
0.019862572316664
0.019331443413233
0.018741547275134
0.018090341148879
0.017374916180463
0.016592421635028
0.015739463713383
0.014813049668479
0.013809241002793
0.012725230263901
0.011556327411461
0.01030056779507
0.0089518933746224
0.0075106382814893
0.00596765343184
0.0043286862556687
0.0025772521568604
0.0007293814754404
-0.0012488043910944
-0.0033317706067688
0.024929395083373
0.024889425820605
0.024808003913851
0.024683246111818
0.02451385616522
0.02429888409998
0.024037301499553
0.02372777262109
0.023368570637238
0.022957674164621
0.022492767722688
0.021971346320462
0.021390572680976
0.020747469091331
0.020038622658494
0.019260633630103
0.018409466897384
0.017481458166254
0.016471861074403
0.015377076090613
0.014191396916829
0.012911973849347
0.011531454456738
0.010049279851199
0.0084545986658258
0.0067524939567467
0.0049241087717748
0.0029854587928304
0.00089855571685266
-0.001311465090849
0.027448986789625
0.027410850212605
0.027333111043928
0.027213884449907
0.027051841409327
0.02684594299054
0.026595023195447
0.026297573309379
0.02595166192701
0.025555032413106
0.025105095554032
0.024599029926615
0.024033626290635
0.023405482562746
0.022710690850127
0.021945302397508
0.021104639507564
0.020184349461184
0.019178857095522
0.018083727668596
0.016892182469971
0.015600417733517
0.014199666054471
0.012688393398819
0.01105377529225
0.0093001133438811
0.0074056247104985
0.0053862380041722
0.0031992335145898
0.00086896702537919
0.029911636028235
0.029875743148854
0.029802516299078
0.029690086985273
0.02953711088613
0.029342476567502
0.029104896093326
0.028822703277307
0.02849378138407
0.028115659837804
0.027685501013371
0.027200190418313
0.026656173687523
0.026049644167518
0.02537622496969
0.024631428934938
0.023809957370577
0.02290676202222
0.021915452255858
0.020830718797847
0.019644704737463
0.018352563582912
0.01694407835589
0.015416613149682
0.013755296510748
0.011963479056437
0.010015976066687
0.007928270587127
0.0056510669658222
0.0032097364068043
0.032306914689896
0.032273649278194
0.032205700375137
0.032101217395369
0.031958858297708
0.031777468083609
0.03155566188087
0.031291632548618
0.030983096760916
0.030627392872035
0.030221468110134
0.029761945809578
0.029244966723774
0.02866634931502
0.028021295123534
0.027304797975038
0.026510991108795
0.025634123769009
0.024667051740136
0.02360353816622
0.022434724917122
0.021154583585062
0.019751531200872
0.018221565587354
0.01654790580356
0.01473275282198
0.012747839917236
0.010607662979544
0.0082545687791445
0.0057111512094159
0.034626262026394
0.034595944457541
0.034533950995666
0.034438443132381
0.034308088573199
0.034141708248366
0.033937844810492
0.033694574337463
0.03340947826794
0.033079732834418
0.032702108784177
0.032272996240185
0.031788273218698
0.031243411780334
0.030633257867638
0.029952310195898
0.029194230605662
0.028352551606922
0.027419516735022
0.026387858011135
0.025247951930215
0.023992317545459
0.022608386168471
0.021090194373384
0.019419461872435
0.017596394205431
0.015590271789984
0.013415886703909
0.011006826484788
0.008379603221742
0.03686301976035
0.036835778828463
0.036780123149638
0.036694304043473
0.036577074924436
0.036427216504066
0.036243156081926
0.036022832771959
0.035763725301963
0.035462898321443
0.035117009005049
0.034722260978083
0.034274320303403
0.033768334884048
0.033198848915535
0.032559862074627
0.031844665650317
0.031046023554191
0.030155776421997
0.029165416050611
0.028065005440894
0.026845020422296
0.02549294666254
0.023999421794318
0.022346713697043
0.020529469360098
0.018517035191131
0.016319358070695
0.01386957208947
0.011186273903535
0.039012661423381
0.038988420012186
0.038938947839214
0.038862752500177
0.038758908328138
0.038626262397402
0.03846307738671
0.038267085601305
0.038035608884097
0.037765612625914
0.037453643321068
0.037095726938357
0.036687379000617
0.036223503293528
0.035698424534744
0.035105667503124
0.03443819245787
0.033687897691054
0.032846307954807
0.031903372877401
0.030849223440171
0.029671372940214
0.028358792303073
0.026896070070665
0.02527086281285
0.023464639585274
0.021458668425935
0.019231913837381
0.016735383574406
0.013963763189323
0.041073243421968
0.041052285419944
0.041008907462969
0.040942283054972
0.040851568929897
0.040735947829703
0.04059368509573
0.040422513333538
0.040219812988461
0.039982459836501
0.039706694156877
0.039388194809835
0.03902224942009
0.038603587980424
0.03812648160506
0.037584246240368
0.036969688640813
0.036274010404162
0.035488404435022
0.034601332042643
0.033602914067467
0.032477624138513
0.031216151567731
0.029796149229936
0.028213231372714
0.026431503218488
0.024459989912733
0.022226199227026
0.019735610231157
0.016738426956268
-0.018977420225231
-0.01949986774612
-0.020028827307709
-0.020563175618847
-0.021101911876657
-0.021644205757237
-0.022189310416741
-0.022736480394382
-0.023284952170894
-0.023833947409893
-0.024382673015277
-0.02493032859255
-0.02547612138837
-0.026019274418701
-0.026559025150398
-0.027094623753959
-0.027625335340158
-0.028150443662306
-0.028669253913157
-0.029181093685747
-0.029685313017477
-0.030181282110879
-0.030668384878217
-0.031146010050864
-0.031613551044739
-0.032070588365941
-0.032516806177799
-0.032951745851826
-0.033374917202282
-0.033785867913802
-0.034184202670697
-0.034569572701198
-0.034941662648648
-0.035300178515021
-0.035644851079506
-0.03597542833524
-0.03629168765846
-0.036593416557744
-0.03688044047022
-0.037152578882561
-0.037409709934252
-0.037651670556492
-0.037878406524218
-0.038089744603332
-0.038285737791968
-0.038466143683982
-0.038631221692198
-0.03878054843906
-0.038914858781049
-0.039033421693614
-0.018852738941456
-0.019384804680858
-0.019924229050018
-0.020469078714232
-0.021018003899093
-0.021570277156501
-0.022125383023395
-0.022682736776174
-0.023241653530501
-0.023801381525763
-0.024361119924884
-0.024920049868585
-0.025477368974673
-0.026032297367102
-0.02658406303367
-0.027131893909405
-0.027675023309184
-0.028212697247177
-0.028744177944916
-0.029268745947336
-0.02978570435254
-0.030294386173337
-0.030794167701529
-0.031284486237732
-0.031764850553134
-0.032234616879426
-0.032693077985883
-0.033139737510149
-0.033574184866828
-0.033996027895313
-0.034404883482441
-0.034800383648568
-0.035182191262316
-0.035549997260573
-0.035903531081968
-0.036242543396048
-0.036566827779289
-0.036876184819323
-0.037170473010757
-0.037449530461584
-0.037713290113032
-0.037961605206182
-0.038194506696289
-0.038411812237214
-0.038613705817276
-0.038799856712734
-0.038970716089225
-0.039125524130945
-0.039265145286011
-0.039387493188077
-0.018618439519713
-0.019174859800268
-0.019740659289346
-0.02031202445919
-0.020886652050182
-0.02146384773228
-0.022043449227492
-0.022625109195157
-0.023208224385561
-0.023792032637538
-0.024375670559762
-0.024958250459715
-0.025538931555862
-0.026116920959871
-0.026691433141025
-0.027261671156128
-0.027826838431625
-0.028386153176805
-0.028938853234192
-0.029484197421529
-0.030021469115401
-0.030549979013764
-0.031069063317292
-0.031578074957139
-0.03207637052031
-0.032563371865516
-0.033038571489918
-0.033501480628638
-0.033951650407885
-0.034388667237975
-0.034812152537555
-0.035221757717839
-0.035617175890741
-0.035998130811039
-0.036364395577035
-0.036715762915533
-0.037052084498661
-0.03737320875964
-0.037679070101222
-0.037969554080821
-0.038244693888041
-0.038504373434206
-0.038748764462666
-0.03897766533591
-0.039191478365801
-0.039389718851212
-0.0395731839584
-0.039740536086914
-0.039892936303315
-0.04002585464237
-0.01828844655838
-0.018882774915562
-0.019489175901358
-0.020100830086998
-0.020714003547579
-0.021328110727808
-0.021943573247478
-0.0225604279374
-0.023178202554309
-0.023796128341738
-0.02441326857283
-0.025028660810298
-0.025641437654824
-0.026250819017576
-0.02685603292423
-0.027456279482402
-0.028050750852837
-0.028638654797405
-0.02921921974488
-0.029791693635527
-0.030355347233564
-0.030909478642048
-0.031453417175072
-0.03198652786998
-0.032508220928084
-0.033017942613517
-0.033515170469056
-0.033999428160681
-0.034470284178389
-0.034927347477782
-0.035370274725773
-0.035798758789489
-0.036212542746933
-0.036611400121359
-0.036995166556389
-0.037363692279914
-0.037716905750479
-0.038054715287367
-0.038377151725018
-0.038684156378256
-0.038975889960312
-0.039252267289409
-0.039513642393204
-0.039759774549933
-0.039991354088606
-0.040207663960112
-0.040409953642161
-0.040596022513853
-0.040767348497249
-0.040915728683482
-0.017869921022135
-0.018514146415194
-0.01917389852864
-0.019838212949379
-0.020501469776552
-0.021163300635059
-0.021824965130941
-0.022487034216357
-0.023149203510254
-0.023810686266728
-0.024470450103337
-0.025127442464552
-0.025780770627259
-0.026429680513864
-0.027073426684582
-0.027711213652158
-0.028342226652559
-0.028965668101743
-0.029580764190424
-0.030186761799812
-0.030782933158902
-0.031368582547537
-0.031943050766879
-0.032505716596238
-0.033055999234946
-0.033593361208331
-0.034117311476826
-0.034627403064941
-0.035123240152276
-0.035604472149011
-0.036070804537825
-0.036521982724032
-0.036957815329159
-0.037378143319974
-0.037782884371501
-0.038171962768153
-0.038545405128045
-0.038903199302349
-0.039245500157485
-0.039572323182344
-0.039883989769071
-0.040180459599359
-0.040462314812415
-0.04072927450953
-0.040982385031314
-0.041220649973594
-0.041445876351678
-0.041654802021273
-0.041849309150966
-0.042016615715308
-0.017366781374739
-0.01807213463604
-0.01879741175123
-0.019526238600227
-0.02025061482587
-0.020970504954077
-0.021688274198491
-0.022405177538719
-0.023121101897825
-0.02383521548819
-0.024546357842951
-0.025253365061649
-0.025955315420189
-0.026651489506464
-0.027341177692547
-0.028023592948846
-0.028697915120746
-0.029363343704649
-0.030019106595298
-0.030664454498116
-0.031298666088696
-0.031921055600321
-0.032530977605918
-0.033127827337379
-0.033711044396807
-0.034280121138284
-0.034834604242952
-0.035374087685266
-0.035898225544118
-0.036406723563842
-0.036899352368474
-0.037375925361156
-0.037836334288545
-0.038280505657843
-0.038708459226278
-0.039120213731665
-0.039515918461128
-0.039895664813117
-0.040259760257566
-0.040608319261442
-0.040941858502847
-0.041260406887529
-0.04156481998361
-0.041854794322306
-0.0421317968092
-0.042394544353276
-0.042645499917105
-0.042880225365357
-0.043101093771446
-0.043290057659308
-0.016780732729477
-0.01755811215458
-0.018360908627301
-0.019165891992215
-0.019962151569579
-0.020750134962202
-0.021533617965622
-0.022314701998312
-0.023093480544321
-0.02386903750261
-0.024640045407637
-0.025405206946475
-0.026163568586405
-0.026914453865019
-0.027657196452317
-0.028391019734751
-0.029115097105803
-0.029828624640931
-0.030530832766129
-0.031220977267033
-0.031898344723147
-0.032562261213865
-0.033212098172637
-0.033847272434397
-0.034467252327216
-0.035071566135192
-0.035659805183179
-0.036231614383963
-0.036786707043503
-0.037324852455458
-0.037845896997916
-0.038349737474755
-0.038836365312747
-0.039305807434969
-0.039758201505248
-0.04019368118737
-0.040612541427435
-0.041015002161355
-0.041401549009431
-0.041772424526995
-0.042128373046896
-0.04246952644714
-0.042797054391869
-0.043110666991879
-0.043412306794691
-0.043700432381949
-0.043978237191568
-0.04424006458604
-0.044488828417473
-0.044700743679403
-0.016111125851889
-0.016971326511743
-0.017863728313564
-0.01875655062111
-0.019635396063136
-0.020501399141952
-0.021360106738701
-0.022214648223982
-0.023065328208155
-0.023911089175229
-0.02475038855245
-0.025581772704433
-0.026404253891882
-0.027217205741734
-0.028020010345921
-0.028811900131103
-0.029592037572829
-0.0303596111845
-0.031113850890169
-0.031854015600667
-0.03257939863298
-0.03328933793451
-0.033983223068743
-0.034660493392316
-0.035320646428019
-0.035963247189039
-0.036587930825625
-0.03719439553553
-0.037782423845148
-0.038351859971085
-0.038902632961058
-0.039434728968478
-0.039948247107158
-0.040443328232831
-0.04092024248246
-0.041379258622496
-0.041820834760807
-0.042245344885894
-0.042653474594265
-0.043045628771148
-0.043422806996796
-0.043785287714528
-0.044134587921085
-0.044470486766698
-0.044795440214111
-0.045107716418826
-0.04541128235053
-0.045699325568369
-0.045975349973569
-0.046209755641757
-0.01535510381392
-0.016308997241317
-0.017303427143816
-0.018296054373513
-0.01926834940075
-0.020222390647834
-0.021165920687157
-0.022103307185886
-0.023035063795466
-0.023959914734804
-0.024876041125298
-0.025781808070887
-0.026676193691257
-0.027558628299828
-0.028428543519228
-0.029285175113695
-0.030127666210758
-0.030955190154154
-0.031766970468107
-0.032562263967166
-0.033340366011934
-0.034100621680912
-0.03484243394976
-0.035565260833937
-0.036268627131346
-0.036952134399993
-0.037615464777347
-0.038258368787394
-0.038880689041203
-0.039482339923418
-0.040063339965157
-0.040623778669928
-0.041163869000972
-0.041683873713475
-0.042184201472402
-0.042665273921168
-0.043127723233602
-0.043572102449883
-0.043999311184408
-0.044409952876994
-0.04480530044246
-0.045185831170841
-0.045553429304951
-0.045908020318864
-0.046252588655888
-0.046585330530231
-0.04691099011805
-0.047221792905061
-0.047521848850782
-0.047776111841863
-0.014507887739841
-0.01556657424889
-0.016675959482519
-0.017780770497683
-0.018857665222716
-0.019910011826556
-0.020948229142055
-0.021978135014986
-0.023000429497146
-0.024013523708273
-0.025015255238391
-0.026003785584566
-0.026978061207649
-0.027937575010725
-0.028881806376428
-0.029809984696789
-0.030721221586087
-0.031614663834354
-0.032489518927264
-0.033345032570036
-0.034180493818366
-0.03499524722146
-0.035788700964455
-0.036560323951727
-0.037309659347494
-0.038036336414606
-0.038740074548737
-0.039420675160296
-0.040078041100758
-0.040712155913765
-0.041323119773314
-0.041911124463534
-0.042476492142904
-0.043019613993187
-0.04354103542145
-0.044041343848548
-0.044521345919192
-0.044981795363366
-0.045423809431538
-0.04584822514529
-0.046256593213263
-0.046649646463575
-0.047029634861319
-0.047396725065813
-0.047754407766182
-0.048100980412542
-0.048441904064094
-0.048768790621994
-0.049086323043454
-0.049354967077662
-0.013562929209528
-0.014737929024771
-0.015975943777697
-0.017205879668515
-0.018398839300791
-0.019559999142308
-0.020703083401843
-0.021835587091447
-0.022958306847287
-0.024069192484665
-0.025165664980443
-0.02624567470266
-0.027308146306986
-0.028352636346339
-0.029378662372681
-0.030385433058505
-0.031372013208094
-0.032337508787128
-0.033281098229063
-0.034202004064184
-0.035099496698512
-0.035972906458524
-0.036821633337071
-0.037645143663794
-0.038442987242673
-0.039214811893649
-0.03996036470907
-0.040679484159926
-0.041372115227577
-0.042038305548397
-0.042678225868671
-0.04329216592633
-0.043880540685012
-0.044443872261868
-0.044982829645559
-0.045498171459237
-0.045990865631957
-0.046461878702596
-0.046912536221642
-0.047343935863454
-0.047757893170562
-0.048155452819495
-0.048539199432462
-0.048909656420941
-0.049270744460239
-0.04962109805138
-0.049966739615804
-0.050299199175444
-0.050623603716439
-0.050897620904248
-0.012512121874474
-0.013815486842505
-0.015196605936825
-0.0165652624919
-0.017886232596054
-0.019167093236725
-0.020425603844971
-0.021671231342763
-0.022904759161223
-0.024123464428598
-0.025324250772491
-0.026504865813367
-0.02766423914977
-0.02880199030106
-0.029917655018158
-0.031010398474716
-0.032079218899365
-0.033123163638496
-0.034141365023176
-0.035133005789382
-0.036097321142218
-0.037033610816609
-0.037941248754598
-0.038819681840954
-0.039668446306206
-0.040487187957987
-0.041275657875992
-0.042033723425632
-0.042761358943508
-0.043458663705662
-0.044125846545363
-0.044763282395457
-0.04537145227899
-0.04595100609015
-0.046502706873693
-0.047027480649316
-0.047526429732629
-0.048000732240444
-0.048451898976563
-0.048881297951838
-0.049290975854259
-0.049682335516271
-0.050058225146071
-0.050419655768167
-0.050770818642818
-0.05111101130661
-0.05144652698658
-0.051769593790587
-0.052085504514979
-0.052351720672741
-0.011345968172569
-0.012790730275364
-0.014330395710176
-0.015851812674622
-0.017313010343541
-0.018724859084594
-0.020109876895206
-0.021479704556114
-0.022834969542736
-0.024172061916976
-0.025487256700776
-0.026778100646834
-0.028043560758963
-0.029283321941789
-0.03049691159112
-0.031683420355181
-0.032841754907184
-0.033970882855135
-0.035069870331274
-0.036137840072528
-0.037173970065707
-0.038177507009139
-0.039147774481527
-0.040084177098662
-0.040986214160786
-0.041853509727872
-0.042685792733602
-0.043482935180417
-0.044244904848197
-0.044971833809979
-0.045663938633044
-0.046321665426924
-0.046945520225237
-0.047536264783958
-0.04809470979107
-0.048621933228871
-0.049119126181285
-0.049587658722278
-0.050029185148392
-0.050445332107911
-0.050838316473145
-0.051209937790509
-0.051563193402213
-0.051899719278746
-0.052223705618482
-0.05253554520629
-0.052841282253015
-0.053134898415732
-0.05342131011721
-0.053661499806477
-0.010054558954677
-0.011654103421229
-0.013368635314228
-0.015057526633982
-0.016671536659721
-0.018226027749855
-0.019749162146192
-0.021254868352221
-0.022743372525194
-0.024209956910345
-0.025650185285764
-0.027061415156163
-0.028442676752712
-0.029793715252036
-0.0311140169129
-0.03240255912109
-0.033658125168
-0.0348795777563
-0.036065892912872
-0.037216108418103
-0.038329318310866
-0.039404688406085
-0.040441461742479
-0.041438974589949
-0.042396656281226
-0.043314082052091
-0.044190925735116
-0.045027034384907
-0.045822327599831
-0.046576941064571
-0.047291062687926
-0.047965180438876
-0.048599777586295
-0.049195695923838
-0.049753737666216
-0.050275103641345
-0.050761006066745
-0.0512129697767
-0.051632715883035
-0.052022105751718
-0.052383389786301
-0.052718812178184
-0.053031315300604
-0.053323288395461
-0.053598607584645
-0.053859422003551
-0.054110665967185
-0.054349422541925
-0.054579211580003
-0.054769521396785
-0.0086284264759057
-0.010395952239287
-0.012302107443207
-0.014173585009212
-0.015953331441484
-0.01766253658526
-0.019335929838226
-0.020989786670339
-0.022623621101654
-0.024231364990992
-0.025807805118574
-0.027350138282363
-0.028857482650748
-0.030329626628599
-0.031765970688537
-0.03316533350676
-0.034526338983497
-0.035847715919121
-0.037128322515391
-0.038367082364723
-0.03956297255195
-0.04071504460573
-0.0418224250978
-0.042884347265583
-0.043900133444047
-0.044869275296456
-0.045791352609999
-0.046666148759689
-0.047493493838823
-0.048273482997784
-0.049006234320542
-0.049692223564343
-0.050331866813793
-0.05092602848262
-0.051475443091868
-0.051981385819031
-0.05244500210918
-0.052867923874814
-0.053251817804817
-0.053598788540037
-0.053910834681556
-0.054190850987936
-0.054441251973
-0.054665086093741
-0.054865656223656
-0.055047997797695
-0.055214626839665
-0.055367445453938
-0.05550711086717
-0.055618001042485
-0.0070583221558143
-0.0090069328716697
-0.011121737455071
-0.01319104888813
-0.015149592060031
-0.017025894661476
-0.018862177378793
-0.020677023796017
-0.022468832715856
-0.024229919891884
-0.025954264545488
-0.027638963227486
-0.029283242042445
-0.030886894024207
-0.032449174423585
-0.033968689644235
-0.035443863275693
-0.036873257954809
-0.038255581844107
-0.039589609286314
-0.04087416108662
-0.042108135132677
-0.043290501525626
-0.0444203508586
-0.04549685691067
-0.046519377457979
-0.04748735281693
-0.048400458141801
-0.049258397987433
-0.050061164224054
-0.050808760894104
-0.051501574403231
-0.05213991918798
-0.052724594455078
-0.053256207155611
-0.05373603531575
-0.054165040773784
-0.0545448921745
-0.054877006715522
-0.055163704547534
-0.055406102333705
-0.055608407534112
-0.05577165924445
-0.055900109356083
-0.055996914118686