/*--------------------------------*- C++ -*----------------------------------*\
| =========                 |                                                 |
| \\      /  F ield         | OpenFOAM: The Open Source CFD Toolbox           |
|  \\    /   O peration     | Version:  2112                                  |
|   \\  /    A nd           | Website:  www.openfoam.com                      |
|    \\/     M anipulation  |                                                 |
\*---------------------------------------------------------------------------*/
FoamFile
{
    version     2.0;
    format      ascii;
    arch        "LSB;label=32;scalar=64";
    class       surfaceScalarField;
    location    "9.3";
    object      phi;
}
// * * * * * * * * * * * * * * * * * * * * * * * * * * * * * * * * * * * * * //

dimensions      [0 3 -1 0 0 0 0];

oriented        oriented;

internalField   nonuniform List<scalar> 
43645
(
0.39512382463553
-4.9515476691051e-06
0.39513863288979
-1.480822609555e-05
0.39516332332243
-2.4690402240138e-05
0.39519789272063
-3.456936682458e-05
0.39524232176676
-4.4429014629818e-05
0.39529657154543
-5.4249747500541e-05
0.39536058708034
-6.4015504335029e-05
0.39543430383786
-7.3716727608399e-05
0.39551764080519
-8.3336938197774e-05
0.39561049014193
-9.2849308333751e-05
0.39571269822593
-0.00010220805641491
0.39582406901343
-0.00011137076065098
0.39594436046971
-0.00012029143023513
0.39607331652837
-0.00012895603332812
0.39621065786267
-0.00013734130974296
0.39635612882886
-0.00014547094229063
0.3965094466211
-0.00015331776906653
0.39667037967166
-0.00016093302795131
0.39683862288065
-0.00016824318702056
0.39701397181136
-0.00017534890922018
0.39719605330494
-0.0001820814726291
0.39738472673144
-0.00018867340591462
0.397579484772
-0.0001947580204268
0.3977803596186
-0.00020087482672864
0.39798655603988
-0.00020619640176649
0.39819850387846
-0.00021194781923431
0.39841473902317
-0.00021623512564983
0.39863660053652
-0.00022186149463494
0.39886111398081
-0.00022451342617986
-0.00023063569235753
0.39909174969144
0.37294721912918
-9.6158939351977e-06
0.37296126017546
-2.8849227584087e-05
0.37298480762896
-4.8237810197306e-05
0.37301786899405
-6.7630686456947e-05
0.37306043412923
-8.6994104972943e-05
0.3731124752591
-0.00010629083333206
0.37317394694091
-0.00012548714307846
0.3732447902876
-0.0001445600321875
0.37332492741156
-0.00016347402111737
0.37341425436775
-0.00018217622445835
0.37351262566974
-0.00020057931943463
0.37361985867288
-0.00021860372580914
0.37373572947957
-0.00023616220002605
0.3738600018324
-0.0002532283501925
0.37399241616721
-0.00026975560963876
0.37413273355294
-0.00028578829395111
0.37428068605973
-0.00030127024273141
0.37443605312606
-0.00031630006189085
0.37459854109699
-0.0003307311263768
0.37476795348311
-0.00034476126436987
0.37494392886414
-0.00035805682336794
0.37512633308539
-0.00037107759732897
0.37531467308629
-0.00038309799206409
0.37550898491006
-0.00039518662154417
0.37570849200862
-0.00040570347183189
0.37591362201851
-0.00041707780084942
0.37612293999676
-0.00042555307598598
0.37633777099026
-0.00043669246072722
0.37655519891969
-0.00044194132942082
-0.0004541115244644
0.37677867477855
0.35201555695436
-1.4275278175654e-05
0.35202948090453
-4.2773130505452e-05
0.35205270807812
-7.1464936507772e-05
0.35208524988303
-0.00010017244463712
0.35212711390549
-0.00012885808168394
0.35217828790225
-0.00015746478538301
0.35223873289469
-0.00018593209200097
0.35230838765767
-0.00021421475275371
0.35238716802591
-0.00024225434819309
0.35247496663329
-0.00026997479178849
0.35257164270376
-0.00029725535113636
0.35267702848658
-0.00032398947095405
0.35279092265502
-0.00035005633204445
0.35291311516735
-0.00037542082713435
0.35304337060598
-0.00040001101405203
0.35318147058269
-0.00042388823735065
0.35332716068501
-0.00044696031278823
0.35348023193244
-0.00046937127781012
0.35364039524736
-0.0004908944106611
0.35380746426375
-0.0005118302506995
0.35398107666068
-0.00053166919094946
0.35416111465178
-0.00055111555946365
0.35434707388934
-0.00056905720121661
0.35453902114819
-0.00058713385220893
0.3547361407278
-0.00060282302367637
0.35493892311097
-0.00061986015633372
0.35514582609028
-0.00063245602790603
0.35535831269278
-0.0006491790361926
0.35557320071117
-0.00065682932195732
-0.00067515595747921
0.35579424517089
0.33225870721111
-1.8938489851055e-05
0.33227260312836
-5.6669006287321e-05
0.33229573400917
-9.4595775718238e-05
0.33232810609903
-0.00013254449331922
0.33236974156752
-0.00017049350981978
0.33242064598585
-0.00020836916422957
0.33248078881384
-0.00024607488156384
0.33255010535639
-0.00028353125783098
0.33262850154969
-0.00032065050515146
0.33271586285139
-0.00035733605812461
0.33281205126654
-0.00039344373209066
0.33291691486514
-0.00042885303632855
0.33303027798617
-0.00046341942099713
0.33315196124332
-0.00049710405311318
0.3332817571666
-0.0005298069072393
0.3334194711438
-0.00056160218524532
0.33356486304652
-0.00059235218715088
0.33371773645263
-0.0006222446562032
0.33387780457617
-0.00065096250727884
0.33404489218792
-0.00067891783600706
0.33421863102176
-0.00070540799898351
0.33439892359994
-0.00073140811214354
0.33458524372851
-0.00075537730479702
0.33477769996505
-0.00077959006390529
0.33497541430523
-0.00080053733939606
0.33517896941063
-0.00082341523731196
0.33538666774762
-0.00084015434074569
0.33560018954737
-0.00086270081210186
0.33581599135105
-0.0008726311028528
-0.00089751038419464
0.3360383458014
0.31361075452772
-2.363560206409e-05
0.31362470791113
-7.0622352470294e-05
0.31364788525595
-0.00011777308329995
0.31368029248968
-0.00016495169029829
0.31372196986283
-0.00021217084706
0.31377294316374
-0.00025934243011204
0.31383319164928
-0.00030632333312263
0.31390264741468
-0.00035298699021217
0.3139812060707
-0.0003992091292761
0.31406874574724
-0.00044487570374836
0.31416513226874
-0.0004898302238203
0.31427023226326
-0.00053395300203999
0.31438389977256
-0.00057708690259253
0.31450599088761
-0.00061919514134098
0.31463633050934
-0.00066014650315808
0.31477475194139
-0.00070002359221756
0.31492103196912
-0.0007386321906975
0.31507498975899
-0.0007762024224304
0.31523634166995
-0.00081231439533292
0.31540492719056
-0.00084750333407311
0.31558037126258
-0.0008808520490061
0.31576260325556
-0.00091364008331036
0.31595107072663
-0.00094384475444745
0.31614593723596
-0.00097445655183364
0.31634624861811
-0.0010008487003846
0.31655270682271
-0.0010298734206354
0.31676342088453
-0.001050868381419
0.31698034360911
-0.0010796235156426
0.31719947233541
-0.0010917598089501
-0.001123755816111
0.31742571778859
0.29600944565043
-2.8379359615969e-05
0.29602349079542
-8.466746304807e-05
0.29604676679386
-0.00014104904736602
0.29607928126847
-0.00019746613098033
0.29612109642953
-0.00025398597497932
0.29617226191283
-0.00031050788103886
0.29623276911143
-0.00036683050032017
0.29630254799434
-0.00042276584256838
0.29638148439351
-0.00047814549891773
0.29646945006558
-0.0005328413471755
0.29656631679324
-0.00058669692389749
0.29667197341038
-0.00063960959246082
0.29678630852435
-0.00069142199089108
0.29690921930645
-0.00074210589856159
0.29704056850447
-0.00079149567726492
0.29718022268892
-0.00083967775342792
0.29732797989519
-0.00088638937456847
0.29748367961521
-0.00093190212055835
0.29764704451325
-0.00097567927218577
0.29781793418515
-0.0010183929851363
0.29799596867108
-0.0010588865146286
0.29818111187378
-0.0010987832658875
0.29837278373037
-0.0011355165913094
0.29857121518389
-0.0011728879856553
0.29877536599407
-0.0012049994911241
0.29898607954987
-0.0012405869568922
0.29920124143446
-0.001266030246635
0.29942312197014
-0.0013015040320658
0.29964718658468
-0.0013158244050277
-0.0013556468153863
0.2998790776035
0.27939602027797
-3.316508805923e-05
0.27941014208971
-9.878924392835e-05
0.27943348976339
-0.000164396690303
0.27946607401135
-0.0002300503486425
0.27950798171925
-0.00029589365332906
0.27955928934611
-0.00036181547907309
0.27962000289099
-0.0004275440172817
0.27969005202015
-0.00049281494459312
0.27976931440614
-0.00055740785875042
0.27985765746786
-0.00062118438353888
0.27995496195178
-0.00068400138347307
0.28006114305358
-0.00074579067070891
0.28017612908959
-0.00080640800432187
0.28029986409474
-0.00086584088185128
0.28043225456042
-0.00092388612198913
0.28057320632577
-0.00098062949841359
0.28072254419505
-0.0010357272242616
0.28088013402335
-0.0010894919297147
0.28104570985498
-0.0011412550853188
0.28121915835061
-0.0011918414625221
0.28140009903906
-0.0012398271853302
0.28158853941779
-0.0012872236269596
0.28178387390744
-0.0013308510636359
0.28198641380141
-0.0013754278622513
0.28219502850169
-0.0014136141742296
0.28241072394111
-0.0014562823789527
0.28263114347773
-0.0014864497660069
0.2828589142226
-0.0015292747597035
0.28308891952513
-0.0015458296909899
-0.0015943423341998
0.28332761506168
0.26371501883997
-3.7974451006554e-05
0.26372916298263
-0.00011293335837905
0.26375249206361
-0.00018772574316877
0.26378502124368
-0.00026257950098072
0.26382686399122
-0.00033773637379903
0.26387812583062
-0.00041307729199516
0.26393882969612
-0.00048824785709265
0.26400890724623
-0.00056289246967362
0.26408823043239
-0.00063673102073829
0.2641766651741
-0.00070961910176329
0.26427410474624
-0.0007814409330318
0.26438049507303
-0.00085218097559973
0.26449580933591
-0.00092172224619343
0.26462004417139
-0.00099007569695087
0.26475315592926
-0.0010569978603086
0.26489509618318
-0.0011225697333194
0.26504572303367
-0.0011863540564813
0.26520493585792
-0.0012487047360907
0.265372486929
-0.0013088061391501
0.26554829833475
-0.0013676528512835
0.26573199590277
-0.0014235247368547
0.26592364100905
-0.0014788687168627
0.26612260780732
-0.0015298178459018
0.26632930143794
-0.0015821214768393
0.26654250169676
-0.0016268144172928
0.26676339672253
-0.0016771773888423
0.26698937841542
-0.0017124314432014
0.26722346371526
-0.0017633600439377
0.26745992236475
-0.0017822883255402
-0.0018405046605249
0.26770608470711
0.24891409697244
-4.27787093404e-05
0.2489281789988
-0.00012701535956081
0.24895135086385
-0.00021089758315694
0.24898363351836
-0.00029486213074478
0.24902516822215
-0.00037927105342494
0.24907609108154
-0.0004640001277332
0.24913644400478
-0.00054860075737614
0.24920616316476
-0.00063261160725554
0.2492851177787
-0.00071568561303733
0.24937317564328
-0.00079767694528426
0.24947024641509
-0.00087851168458699
0.24957631102789
-0.00095824556872817
0.24969139236865
-0.0010368035680729
0.24981554498066
-0.0011142282906188
0.2499487810113
-0.0011902338733633
0.25009110419234
-0.0012648928972271
0.25024241305195
-0.001337662899631
0.25040264810337
-0.0014089397713921
0.25057158820458
-0.001477746224804
0.25074919979723
-0.0015452644285906
0.25093512433389
-0.0016094492586237
0.25112948777904
-0.0016732321472069
0.25133165313586
-0.0017319831882641
0.2515421328955
-0.0017926012219797
0.25175962304666
-0.0018443045542061
0.25198551121723
-0.0019030655450428
0.25221693679503
-0.0019438570068283
0.2524573299145
-0.0020037531493135
0.25270033542876
-0.0020252938263104
-0.0020943685272345
0.25295419931003
0.23494385056643
-4.754169387472e-05
0.23495776461252
-0.0001409293827661
0.23498060682739
-0.00023373977523658
0.23501240509845
-0.00032666037925464
0.23505332889385
-0.00042019482675844
0.23510354560741
-0.00051421681961497
0.23516311772377
-0.00060817285264756
0.23523198845352
-0.00070148231635086
0.23531002752319
-0.00079372466269664
0.23539710818399
-0.00088475758653825
0.23549316025281
-0.00097456373456272
0.23559820347726
-0.0010632887748054
0.23571231459326
-0.0011509146663954
0.23583561048076
-0.0012375241608958
0.23596816449684
-0.0013227878728985
0.23611003833306
-0.0014067667172871
0.23626117850758
-0.0014888030586141
0.2364215737621
-0.0015693350106724
0.23659103978037
-0.001647212228388
0.23676959484189
-0.0017238194756133
0.23695690930406
-0.0017967637067637
0.23715318124591
-0.0018695040751253
0.23735777776913
-0.001936579697929
0.23757132887519
-0.0020061523144823
0.23779246128408
-0.0020654369498551
0.23802277646926
-0.0021333807169187
0.23825917531917
-0.0021802558437086
0.23850550968222
-0.0022500874994732
0.23875480621848
-0.0022745903503123
-0.0023558043359925
0.23901624204048
0.22175765081107
-5.2222695261312e-05
0.22177127794099
-0.00015455649208452
0.22179359812797
-0.00025605994167484
0.22182464701779
-0.00035770924871863
0.22186462183332
-0.00046016962234119
0.22191372102377
-0.00056331599041003
0.22197202862373
-0.00066648043344403
0.2220394971569
-0.0007689508306941
0.22211600006171
-0.00087022754921786
0.22220141949206
-0.00097017699897394
0.22229570879321
-0.001068853018388
0.22239892950235
-0.0011665094669964
0.22251121532125
-0.001263200468952
0.22263274860475
-0.0013590574284212
0.2227636685007
-0.0014537077534655
0.22290409921168
-0.0015471974132097
0.22305404317908
-0.0016387470115091
0.2232135426896
-0.0017288345069434
0.22338246344345
-0.001816132968482
0.22356087834481
-0.001902234363395
0.22374850845808
-0.0019843938068812
0.22394561925769
-0.0020666148616744
0.22415161564792
-0.0021425760754553
0.22436723059727
-0.0022217672511458
0.22459106605921
-0.0022892723994142
0.22482491760898
-0.0023672322542815
0.22506550741157
-0.0024208456341883
0.22531709010454
-0.0025016701804895
0.22557213254358
-0.0025296327780304
-0.002624374149439
0.2258407023693
0.20931148841636
-5.6779143663314e-05
0.20932470445802
-0.00016777251489399
0.20934630329359
-0.00027765875842193
0.20937632861716
-0.00038773455357939
0.20941500398252
-0.00049884496932119
0.20946255767132
-0.00061086966104556
0.20951909551162
-0.00072301825597507
0.20958458116752
-0.00083443646907027
0.20965889466953
-0.00094454103414691
0.20974193008542
-0.0010532123980712
0.20983366693121
-0.001160589847875
0.20993421040029
-0.0012670529200719
0.21004375290771
-0.0013727429608858
0.21016254388649
-0.0014778483920161
0.21029079146249
-0.0015819553147932
0.21042868553997
-0.0016850914762883
0.21057629176077
-0.001786353218415
0.21073370962351
-0.0018862523560095
0.21090087009461
-0.0019832934263746
0.21107789703354
-0.0020792612892872
0.21126459780656
-0.0021710945672801
0.2114612735307
-0.0022632905732942
0.21166744982213
-0.0023487523547473
0.21188387083948
-0.0024381882563894
0.21210927179085
-0.0025146733390211
0.21234545768604
-0.0026034181377179
0.21258925147475
-0.0026646394114921
0.21284491460579
-0.002757333300321
0.21310502023684
-0.0027897383984993
-0.0028994036970748
0.21338004979593
0.19756382652369
-6.1169120893144e-05
0.19757650914241
-0.00018045511629096
0.19759719211543
-0.00029834171409488
0.19762592660972
-0.00041646903058758
0.19766296010614
-0.00053587844871738
0.19770854855272
-0.00065645809076594
0.19776281903648
-0.00077728872318754
0.19782574758898
-0.00089736500520324
0.19789722316253
-0.0010160165917072
0.19797715407074
-0.001133143290493
0.19806554764796
-0.0012489834097282
0.19816255329777
-0.0013640585547374
0.19826842219681
-0.0014786118452362
0.19838347082347
-0.0015928970042092
0.19850797738992
-0.0017064618672284
0.1986421997415
-0.001819313814077
0.19878627104475
-0.0019304245083242
0.19894035373917
-0.0020403350372864
0.19910445111482
-0.0021473907893068
0.19927874810729
-0.0022535582691914
0.19946314557863
-0.0023554920264646
0.19965799543981
-0.0024581404224277
0.19986295775223
-0.0025537146554807
0.20007878211696
-0.0026540126094835
0.20030441820949
-0.0027403094202654
0.20054155281648
-0.0028405527334612
0.20078738713218
-0.002910473716278
0.20104578466413
-0.0030157308215893
0.20131012688949
-0.0030540806138007
-0.003179803259788
0.20159052646313
0.18647546214693
-6.5353882480864e-05
0.18648749732862
-0.00019249028175193
0.18650708509605
-0.00031792946523904
0.186534282262
-0.00044366618028688
0.18656935708838
-0.00057095325904421
0.18661259024044
-0.00069969122688754
0.18666412871035
-0.00082882717742496
0.18672396135992
-0.00095719763923587
0.1867919876666
-0.001084042883175
0.1868681316841
-0.0012092872929373
0.18695242910972
-0.0013332808206462
0.18704507266998
-0.0014567021004802
0.18714637061488
-0.0015799097759957
0.18725670445165
-0.0017032308270241
0.18737642168354
-0.0018261790855565
0.18750584823729
-0.0019487403544579
0.18764518737191
-0.0020697636299722
0.18779466879931
-0.0021898164518913
0.18795437174559
-0.0023070937232021
0.18812455605165
-0.0024237425630289
0.188305209352
-0.0025361453149851
0.1884967744134
-0.0026497054721225
0.1886990081501
-0.002755948380838
0.18891275330451
-0.0028677577526409
0.18913709412076
-0.0029646502256056
0.18937374812298
-0.0030772067248389
0.18962015301828
-0.0031568786010791
0.1898800547072
-0.0032756325002493
0.19014723818268
-0.0033212640796057
-0.0034641857800801
0.19043162071349
0.17600939377459
-6.9298882553421e-05
0.17602068352524
-0.00020378001697436
0.17603902020364
-0.00033626612813033
0.17606446523103
-0.00046911119216719
0.1760973040905
-0.00060379210318767
0.17613783845972
-0.00074022558087248
0.17618623320731
-0.00087722191003454
0.17624248986743
-0.001013454284504
0.17630651928766
-0.0011480722888419
0.17637826182201
-0.0012810298128725
0.17645778086575
-0.0014127998503024
0.17654531005221
-0.001544231273
0.17664121125128
-0.0016758109614565
0.17674592700635
-0.0018079465686366
0.17685987124001
-0.0019401233061109
0.1769834360511
-0.0020723051525988
0.17711689510828
-0.0022032226745604
0.1772605476435
-0.0023334689746925
0.17741455125642
-0.0024610973240858
0.17757924835972
-0.0025884396544595
0.1777547159667
-0.0027116129104905
0.17794150094159
-0.002836490435679
0.1781394591342
-0.0029539065624863
0.17834955403633
-0.0030778526439314
0.17857097894856
-0.0031860751273211
0.17880557631051
-0.0033118040763765
0.17905088951393
-0.003402191794393
0.17931079571429
-0.0035355386907292
0.17957913872259
-0.0035896070785642
-0.0037512062057104
0.17986615915843
0.16613069825296
-7.297514152963e-05
0.166141163268
-0.00021424501709874
0.16615812188286
-0.00035322472797074
0.1661816393501
-0.00049262864440504
0.16621201451573
-0.00063416725400909
0.16624956582808
-0.00077777687854283
0.16629447325297
-0.00092212932052482
0.16634675011524
-0.001065731132531
0.16640631888784
-0.0012076410475389
0.16647313603349
-0.0013478469447822
0.16654729081069
-0.0014869546140899
0.16662905386886
-0.0016259943179082
0.16671883551434
-0.0017655925939805
0.16681713346882
-0.0019062445103039
0.16692442300661
-0.0020474128313919
0.16704115866629
-0.0021890407999046
0.16716768205928
-0.0023297460555131
0.16730436249996
-0.0024701494034946
0.16745143549145
-0.0026081703040742
0.16760933095072
-0.002746335102408
0.16777821701495
-0.0028804989637873
0.16795875124918
-0.0030170246591742
0.16815089618726
-0.003146051490197
0.16835573996166
-0.0032826964081301
0.16857260420153
-0.0034029393573072
0.16880345714904
-0.0035426570141077
0.16904598876955
-0.0036447234054088
0.16930421062021
-0.0037937605320777
0.16957207368116
-0.0038574701306415
-0.0040391767122773
0.16986004419753
0.15680641391674
-7.6360354586897e-05
0.15681599450258
-0.00022382558831133
0.1568314798746
-0.00036871008529155
0.15685293805292
-0.00051408680811424
0.15688067722348
-0.00066190641023155
0.15691502806084
-0.0008121277018047
0.15695618246982
-0.00096328371577227
0.15700416413853
-0.0011137127878064
0.15705890657522
-0.0012623834712051
0.15712038111579
-0.0014093214725929
0.15718870019887
-0.0015552736847799
0.15726416645026
-0.0017014605571112
0.1573472319546
-0.0018486580864448
0.15743844208894
-0.0019974546329147
0.15753832648707
-0.0021472972180661
0.15764739653087
-0.0022981108323812
0.15776605675753
-0.0024484062711443
0.15789474505919
-0.0025988376942949
0.15803377111109
-0.0027471963454686
0.15818365526069
-0.0028962192417209
0.15834465378755
-0.0030414974807526
0.15851754315506
-0.0031899140170298
0.15870239153068
-0.0033308998565455
0.15890042345245
-0.0034807283208283
0.1591110953335
-0.0036136112296077
0.15933650196314
-0.0037680636351161
0.15957451354756
-0.003882734981409
0.15982926086023
-0.0040485078364246
0.16009490030207
-0.004123109564432
-0.0043262688292509
0.16038199242813
0.14800542971014
-7.943912108708e-05
0.1480140863625
-0.00023248222600839
0.14802803639001
-0.00038266009815828
0.148047349251
-0.00053339965473561
0.14807233816555
-0.00068689531088057
0.14810334128819
-0.00084313081098545
0.14814055914726
-0.0010005015619809
0.14818402411201
-0.0011571777401978
0.1482336797626
-0.0013120391100343
0.14828951038965
-0.0014651520883134
0.14835164780176
-0.0016174110860454
0.14842042025146
-0.0017702329962591
0.14849631403693
-0.0019245518617061
0.14857991323854
-0.0020810538244901
0.14867179347358
-0.0022391774433378
0.148772515525
-0.0023988328741626
0.14888254009533
-0.0025584308321166
0.1490023695322
-0.0027186671219727
0.14913238202915
-0.002877208833568
0.14927318675097
-0.0030370239549444
0.14942512378302
-0.0031934345046129
0.14958908975087
-0.0033538799769752
0.14976525701408
-0.0035070671122663
0.14995499847642
-0.0036704697759309
0.15015790515267
-0.0038165178989417
0.15037622154582
-0.0039863800214575
0.1506079792842
-0.0041144927131192
0.1508574521604
-0.0042979807059268
0.15111899828636
-0.004384655683686
-0.0046105570972617
0.15140328656225
0.13969838081618
-8.2202663084734e-05
0.13970609372584
-0.00024019512018104
0.13971847886129
-0.00039504521825327
0.13973560567556
-0.00055052645421045
0.13975778783992
-0.00070907746127293
0.13978536592823
-0.00087070888615744
0.13981854568043
-0.001033681301984
0.13985736646017
-0.001195998508585
0.13990178093554
-0.0013564535749312
0.13995178400599
-0.0015151551489663
0.14000752261306
-0.0016731496839749
0.14006934328348
-0.0018320536579543
0.14013775799756
-0.0019929665674863
0.14021337910855
-0.0021566749273952
0.14029681956024
-0.0023226178872148
0.14038867943905
-0.0024906927453
0.14048946910808
-0.0026592204937364
0.1405997463093
-0.002828944315973
0.14071995427326
-0.0029974167906561
0.14085078039867
-0.003167850073756
0.14099264955467
-0.0033353036544667
0.14114656487098
-0.0035077952874863
0.1413128038892
-0.0036733061251573
0.14149289065613
-0.0038505565378418
0.14168653401515
-0.0040101612532927
0.14189621759488
-0.0041960635966393
0.14212002828004
-0.0043383033937854
0.14236260488735
-0.0045405573085693
0.14261814022361
-0.0046401910149515
-0.0048899922602027
0.14289757539293
0.13185754987074
-8.4647787705502e-05
0.13186431688935
-0.00024696212055104
0.13187513789555
-0.00040586620624973
0.1318900802652
-0.00056546880658178
0.13190945312974
-0.00072845030985467
0.13193359472054
-0.00089485046236544
0.13196271307687
-0.0010627996451511
0.13199685289081
-0.0012301383106512
0.13203597473027
-0.0013955754037495
0.13208008116415
-0.0015592615731748
0.13212932969845
-0.0017223982094629
0.13218407693384
-0.0018868008851135
0.13224485221183
-0.0020537418377585
0.13231228414465
-0.0022241068527772
0.13238701549298
-0.0023973492284061
0.13246967209526
-0.0025733493406292
0.1325608108662
-0.00275035925799
0.13266102732047
-0.0029291607638018
0.13277083293537
-0.0031072223994795
0.13289096883976
-0.003287985972458
0.13302195625194
-0.0034662910614572
0.13316487475634
-0.0036507137871814
0.13332011825658
-0.0038285496212524
0.13348933663063
-0.0040197749081875
0.13367233155988
-0.0041931561792687
0.13387188401576
-0.004395616049457
0.13408610105048
-0.0045525204255044
0.13432023329943
-0.004774689554228
0.1345680715578
-0.0048880292694387
-0.0051622150049478
0.13484029430799
0.12445677398188
-8.6775408666064e-05
0.12446260742035
-0.0002527955342926
0.1244718927486
-0.00041515150924804
0.12448469080527
-0.0005782668390931
0.12450129959849
-0.0007450590807209
0.12452205066314
-0.00091560150662223
0.12454715310805
-0.0010879020716318
0.12457665689464
-0.0012596420805649
0.12461052999275
-0.0014294484867821
0.12464877906855
-0.0015975106351438
0.12469156659251
-0.0017651857206636
0.12473924936624
-0.0019344836468252
0.12479236528656
-0.0021068577466622
0.12485154580705
-0.0022832873622537
0.12491745832814
-0.0024632617388568
0.12499073746956
-0.0026466284716696
0.12507199009965
-0.0028316118780594
0.12516182136451
-0.0030189920189975
0.12526082733573
-0.0032062283615402
0.12536975448187
-0.0033969131099874
0.12548925760926
-0.0035857941809357
0.1256204214627
-0.0037818776334331
0.12576382329679
-0.0039719514489285
0.1259211470462
-0.004177098651882
0.12609233903395
-0.0043643481619701
0.12628033695081
-0.004583613961734
0.12648325190708
-0.0047554353774372
0.12670711086516
-0.0049985485077902
0.12694575063432
-0.0051266690335039
-0.0054268075788385
0.12721034321499
0.11747136174831
-8.8593346778548e-05
0.11747628731635
-0.00025772106574976
0.11748409026024
-0.00042295441525814
0.11749481802248
-0.00058899456451397
0.11750875109945
-0.00075899212299611
0.11752620949951
-0.00093305987437683
0.1175474018308
-0.0011090943730096
0.11757238400742
-0.0012846242293886
0.11760113290524
-0.0014581973586647
0.11763365707632
-0.0016300347817534
0.11767011869924
-0.0018016473203173
0.11771086454549
-0.0019752294707028
0.11775643084941
-0.0021524240289303
0.1178074381482
-0.0023342946399328
0.11786457332177
-0.0025203968918146
0.11792846259731
-0.0027105177270437
0.11799976902921
-0.0029029182903224
0.11807907276641
-0.0030982957371598
0.1181670837554
-0.0032942393322463
0.11826447755812
-0.0034943068953123
0.1183721214751
-0.0036934380815822
0.11849095375253
-0.0039007098957014
0.11862190831365
-0.0041029059960755
0.11876647470487
-0.0043216650303107
0.11892503027696
-0.0045229037223475
0.11910045569513
-0.0047590393691766
0.11929058132019
-0.0049455609925271
0.1195022678337
-0.0052102350116855
0.11972799021015
-0.0053523914002417
-0.0056863779955092
0.11998756063819
0.11087801732511
-9.0125727493795e-05
0.11088209121201
-0.0002617948997661
0.11088849777222
-0.00042936092067003
0.11089725709349
-0.00059775383205636
0.11090863378232
-0.00077036876042198
0.1109229376775
-0.00094736372080459
0.11094037952087
-0.0011265361702229
0.11096102020154
-0.0013052648661559
0.11098484488196
-0.0014820219971192
0.11101185953292
-0.0016570493922664
0.11104221863531
-0.001832006383527
0.11107624975934
-0.0020092605565071
0.11111447788354
-0.0021906521157395
0.11115750648951
-0.0023773232091935
0.11120603758841
-0.002568927954711
0.11126068118855
-0.002765161291827
0.11132215641987
-0.0029643934871222
0.11139099071056
-0.0031671299942447
0.11146802990166
-0.0033712784909413
0.11155379448333
-0.0035800714459521
0.11164946779493
-0.0037891113638758
0.11175560666229
-0.0040068487355616
0.11187381734142
-0.0042211166496365
0.11200481857161
-0.0044526662367388
0.11215023580505
-0.0046683209338695
0.11231203163021
-0.0049208351741811
0.11248923432178
-0.0051227636656436
0.11268834764147
-0.0054093483142651
0.11289710764744
-0.0055611513900673
-0.0059413480319671
0.1131520777013
0.10465473658437
-9.1396280881309e-05
0.10465806431115
-0.00026512255630693
0.10466320806404
-0.00043450460208101
0.10467014337062
-0.00060468906849048
0.10467910014226
-0.00077932546430263
0.10469039100768
-0.00095865452110422
0.10470424496042
-0.0011403900603317
0.10472074185128
-0.0013217616965095
0.10473987813204
-0.0015011582191364
0.10476166490051
-0.0016788361034039
0.10478622949223
-0.0018565709190656
0.10481385860729
-0.0020368896163588
0.10484504471256
-0.0022218381666622
0.10488037236887
-0.0024126508120044
0.10492055326286
-0.0026091087960371
0.10496619566715
-0.0028108036444424
0.10501806164212
-0.0030162594115004
0.10507663281694
-0.0032257011198959
0.10514286398507
-0.003437509611622
0.1052170957191
-0.0036543031347191
0.10530085365864
-0.0038728692606715
0.10539413634595
-0.0041001313829821
0.10549956947854
-0.0043265497451551
0.10561620097881
-0.0045692977027214
0.10574848937907
-0.004800609302596
0.10589400740084
-0.0050663531673261
0.10605944873348
-0.0052882049725671
0.10624430532851
-0.0055942048862646
0.10644824278644
-0.0057650888272748
-0.0061759212293885
0.10668281600569
0.098780667647003
-9.2345583293891e-05
0.098783325646422
-0.00026778047383432
0.098787280621526
-0.00043845949474963
0.098792603409379
-0.00061001177535144
0.098799334817536
-0.00078605679364103
0.098807851914258
-0.00096717154124298
0.098818394450115
-0.0011509325216179
0.098831081038837
-0.001334448212268
0.098845937769365
-0.0015160148779796
0.098862979804507
-0.0016958780678193
0.098882308810522
-0.00187589985518
0.098904160479045
-0.0020587412156725
0.098928969369774
-0.0022466469889283
0.098957276877448
-0.0024409582519462
0.0989897767703
-0.0026416086220777
0.099027076812344
-0.0028481036206969
0.099069970969847
-0.0030591535046177
0.099118937912931
-0.0032746680003476
0.099175013894319
-0.0034935855328218
0.099238441776213
-0.0037177309594633
0.099311018669046
-0.0039454461001159
0.099392300215877
-0.004181412880453
0.099485880939098
-0.0044201304231847
0.099589032181255
-0.0046724489036543
0.099709676957178
-0.0049212540413185
0.09983848962645
-0.0051951658036611
0.099993814577407
-0.0054435298949649
0.10015238430102
-0.0057527745851011
0.10035414036451
-0.005966844868592
0.10059569166852
-0.0064174725109675
0.39442501755202
0.0046667321576237
0.38991634552848
0.0045086720412088
0.38557029993739
0.0043460456084349
0.38139135434158
0.0041789456131624
0.37738387892008
0.0040074754388274
0.37355213474556
0.0038317441920476
0.36990026070446
0.0036518740587273
0.36643226090396
0.003467999818405
0.36315199367645
0.00328026724555
0.36006316333398
0.0030888303608407
0.35716931539341
0.0028938479590815
0.35447383497357
0.0026954804387026
0.35197994561272
0.0024938893798757
0.34969070766566
0.0022892379664543
0.34760901454104
0.0020816931441735
0.34573758693386
0.0018714276271279
0.34407896363053
0.0016586233234294
0.34263549010988
0.0014434735411595
0.34140930471092
0.0012261854196187
0.34040232472689
0.0010069800051291
0.3396162319433
0.00078609280485225
0.33905245908437
0.00056377288066307
0.33871217167681
0.00034028742947145
0.33859620600657
0.00011596569265119
0.33870538192326
-0.00010917589407493
0.33904011493655
-0.00033473299015007
0.3396004774808
-0.00056036252090397
0.34038634733723
-0.00078586983256676
0.34139735457718
-0.0010110072159006
0.34263288151737
-0.0012355269156783
0.34409206675851
-0.0014591852165436
0.34577381447338