/*--------------------------------*- C++ -*----------------------------------*\
| =========                 |                                                 |
| \\      /  F ield         | OpenFOAM: The Open Source CFD Toolbox           |
|  \\    /   O peration     | Version:  2112                                  |
|   \\  /    A nd           | Website:  www.openfoam.com                      |
|    \\/     M anipulation  |                                                 |
\*---------------------------------------------------------------------------*/
FoamFile
{
    version     2.0;
    format      ascii;
    arch        "LSB;label=32;scalar=64";
    class       volVectorField;
    location    "3.4";
    object      U;
}
// * * * * * * * * * * * * * * * * * * * * * * * * * * * * * * * * * * * * * //

dimensions      [0 1 -1 0 0 0 0];

internalField   nonuniform List<vector> 
22000
(
(1.0000013579471 -3.1902641177026e-05 0)
(1.0000324919126 -9.3335263838751e-05 0)
(1.0000915410418 -0.000152669593338 0)
(1.0001788729959 -0.00020992113554855 0)
(1.0002939229578 -0.00026506661673981 0)
(1.0004356811736 -0.0003184903151205 0)
(1.0006033251022 -0.00037097189766277 0)
(1.0007964835212 -0.00042327474477423 0)
(1.0010151693317 -0.00047577375257903 0)
(1.0012595112197 -0.00052834843318643 0)
(1.0015294246422 -0.00058037353283741 0)
(1.0018244550904 -0.00063096287296067 0)
(1.0021437336948 -0.00067925872060302 0)
(1.0024861278055 -0.0007248357925138 0)
(1.0028503044467 -0.00076747085351644 0)
(1.0032348944986 -0.00080714283098952 0)
(1.0036382275743 -0.00084343776908811 0)
(1.004058403193 -0.00087649679857266 0)
(1.0044933889723 -0.00090624824541516 0)
(1.0049423059047 -0.00093403262479359 0)
(1.0054046182191 -0.00095946706721484 0)
(1.005879876109 -0.00098396616108972 0)
(1.006365707954 -0.0010044807801953 0)
(1.0068608448102 -0.0010232699520797 0)
(1.00736280132 -0.0010345915255897 0)
(1.0078715374145 -0.0010465465219995 0)
(1.0083830799573 -0.0010502674785227 0)
(1.0088994328182 -0.0010654693535335 0)
(1.0094179933679 -0.0010727693955322 0)
(1.0099492839485 -0.0011097956394294 0)
(1.0000006937445 -9.3935360488243e-05 0)
(1.0000319746631 -0.00027508883795033 0)
(1.0000916735482 -0.00045034145209462 0)
(1.0001800350935 -0.00061967039274711 0)
(1.0002965551465 -0.00078290589542729 0)
(1.0004403109324 -0.00094110482375952 0)
(1.0006105505463 -0.0010966220898991 0)
(1.0008069914394 -0.0012518442686224 0)
(1.001029723337 -0.0014078842357942 0)
(1.0012789419071 -0.0015642574919583 0)
(1.0015545745789 -0.0017191058180286 0)
(1.0018561775891 -0.0018699482827609 0)
(1.0021828850995 -0.0020142202031229 0)
(1.0025336128096 -0.0021503160837111 0)
(1.0029069499419 -0.0022772903105052 0)
(1.003301588853 -0.0023952577773194 0)
(1.0037156828806 -0.0025035072605178 0)
(1.0041472866614 -0.0026025802302605 0)
(1.0045939413548 -0.0026917491113316 0)
(1.0050552445685 -0.0027742101383828 0)
(1.0055301638292 -0.0028488509710753 0)
(1.006018948582 -0.0029204864596059 0)
(1.0065176101021 -0.0029811298658635 0)
(1.0070269502725 -0.0030372918938728 0)
(1.0075416045775 -0.0030715295309741 0)
(1.0080660421518 -0.0031059462648716 0)
(1.0085889421749 -0.0031145848395203 0)
(1.0091223505789 -0.0031548554991245 0)
(1.0096478895715 -0.0031732369279903 0)
(1.0102006663344 -0.0032792400735138 0)
(1.0000007279377 -0.00015357000031949 0)
(1.0000332403194 -0.00045013993635289 0)
(1.0000952214256 -0.00073750850455511 0)
(1.0001868983179 -0.001015558768793 0)
(1.0003077679793 -0.0012838890106585 0)
(1.000456928392 -0.0015441747377141 0)
(1.0006336834783 -0.0018003537995807 0)
(1.0008378457865 -0.0020564597705217 0)
(1.0010695910405 -0.0023143194591546 0)
(1.0013292066228 -0.002573031220335 0)
(1.0016166578386 -0.0028294951626854 0)
(1.0019315490095 -0.0030796719813837 0)
(1.0022730280808 -0.0033192856343749 0)
(1.0026401017688 -0.0035454690704403 0)
(1.003031302729 -0.0037564391082257 0)
(1.0034454108905 -0.0039524011666227 0)
(1.0038802331311 -0.0041323645376994 0)
(1.0043337417843 -0.0042972867948745 0)
(1.0048028985094 -0.0044456506541341 0)
(1.0052880997631 -0.0045824345827605 0)
(1.0057875334307 -0.0047057544410717 0)
(1.0063027133411 -0.0048241213744553 0)
(1.0068270279781 -0.0049245355972208 0)
(1.0073647119402 -0.0050180606941056 0)
(1.0079051575158 -0.0050747269855959 0)
(1.0084610512014 -0.005131201256987 0)
(1.0090080865202 -0.0051426928300499 0)
(1.0095774868495 -0.0052066120299585 0)
(1.0101209034867 -0.0052320942755348 0)
(1.010720098056 -0.0054064400675635 0)
(1.0000007477876 -0.00021207636110802 0)
(1.0000346403844 -0.00062207284086124 0)
(1.0000993534092 -0.0010198295172788 0)
(1.0001951913295 -0.0014051541366809 0)
(1.0003216902378 -0.0017774278928469 0)
(1.0004779843071 -0.0021389711447463 0)
(1.0006634424424 -0.0024953209280194 0)
(1.0008779898043 -0.0028521476635351 0)
(1.0011219202035 -0.0032119744421457 0)
(1.0013956578173 -0.0035734754454452 0)
(1.0016992388819 -0.0039322849091456 0)
(1.0020323555003 -0.0042827619193291 0)
(1.0023941545308 -0.0046188766928679 0)
(1.0027837141553 -0.0049364793661116 0)
(1.0031994304623 -0.0052328815793156 0)
(1.0036401977698 -0.0055082904773575 0)
(1.0041034412463 -0.0057613286298219 0)
(1.0045872349703 -0.0059933984432868 0)
(1.0050877848977 -0.0062022094688326 0)
(1.005606477127 -0.0063946579623614 0)
(1.0061402243509 -0.0065679444567515 0)
(1.0066925176506 -0.0067344631990319 0)
(1.0072531317022 -0.0068759044086738 0)
(1.0078312844163 -0.0070085722640855 0)
(1.0084086026608 -0.007089136716117 0)
(1.0090096896205 -0.0071701769583515 0)
(1.0095916559973 -0.007185433153066 0)
(1.0102135701867 -0.0072754128723034 0)
(1.0107840060535 -0.0073060152860108 0)
(1.0114516620325 -0.0075505374541308 0)
(1.0000007701662 -0.00026966874750637 0)
(1.0000362283018 -0.00079165751770802 0)
(1.000104061222 -0.0012987437095447 0)
(1.0002046829281 -0.0017906379416867 0)
(1.0003376958128 -0.0022664890938913 0)
(1.000502291306 -0.0027292816947989 0)
(1.000697918008 -0.003186199314258 0)
(1.0009246438697 -0.0036445996205514 0)
(1.0011829380178 -0.0041077259788915 0)
(1.0014734355178 -0.004573805013064 0)
(1.001796293906 -0.0050371316096368 0)
(1.0021513382842 -0.0054903966764264 0)
(1.0025377206509 -0.0059257708285732 0)
(1.0029546044363 -0.0063377784026894 0)
(1.0034002205702 -0.0067227030762582 0)
(1.0038736126791 -0.0070806208371289 0)
(1.0043717465825 -0.0074096435223098 0)
(1.0048928464014 -0.0077116669681113 0)
(1.0054321658458 -0.0079836282937255 0)
(1.005992207307 -0.0082344676472995 0)
(1.0065682129154 -0.0084602520042467 0)
(1.0071661957002 -0.0086775301899079 0)
(1.0077715620477 -0.008862214036211 0)
(1.0083999112201 -0.0090367733226344 0)
(1.009022934494 -0.0091430230248177 0)
(1.0096805208227 -0.0092515567965702 0)
(1.0103057018082 -0.0092706103627997 0)
(1.010993953693 -0.0093891328920446 0)
(1.0115975386915 -0.0094212366084497 0)
(1.0123530057699 -0.0097388371353978 0)
(1.0000007915726 -0.00032643892217861 0)
(1.0000378873145 -0.00095922338197727 0)
(1.000109007229 -0.0015748837054194 0)
(1.0002147011389 -0.0021730110164708 0)
(1.0003546608329 -0.0027525005441821 0)
(1.0005281624549 -0.0033170158417764 0)
(1.0007347709602 -0.0038754432720715 0)
(1.0009747387933 -0.0044369023280125 0)
(1.0012487516115 -0.0050053952830039 0)
(1.0015576989656 -0.0055786685257034 0)
(1.0019018829624 -0.0061495800756259 0)
(1.0022812868755 -0.0067090678188789 0)
(1.0026950816271 -0.0072474317327105 0)
(1.0031425435337 -0.0077578053648174 0)
(1.0036217404337 -0.0082352913360283 0)
(1.0041319307757 -0.0086797368178453 0)
(1.0046696518424 -0.0090886298168219 0)
(1.0052333895587 -0.009464453991632 0)
(1.005817389815 -0.0098032575666031 0)
(1.0064253840258 -0.010116189890134 0)
(1.0070507504061 -0.010397938438706 0)
(1.0077023827468 -0.010669699670456 0)
(1.0083607969669 -0.01090125317139 0)
(1.0090488280125 -0.011121994128736 0)
(1.0097265917589 -0.011257654978085 0)
(1.0104519377021 -0.011398059591543 0)
(1.0111295573479 -0.011423078102115 0)
(1.0118989010731 -0.011574553142231 0)
(1.0125440199443 -0.011607490876856 0)
(1.013408115679 -0.012006073858051 0)
(1.000000808997 -0.00038229804153058 0)
(1.0000394908217 -0.0011245360681584 0)
(1.0001138309268 -0.0018479105829949 0)
(1.0002245378988 -0.0025518730582634 0)
(1.0003714147961 -0.0032350388642089 0)
(1.0005538493267 -0.0039017741246066 0)
(1.0007715555431 -0.0045627452299691 0)
(1.0010250124008 -0.0052289128069256 0)
(1.001315170467 -0.0059050656382524 0)
(1.0016432379025 -0.0065884440437323 0)
(1.0020097270186 -0.007270386415277 0)
(1.0024148540031 -0.0079399758330487 0)
(1.0028578379572 -0.0085855348441087 0)
(1.0033381060706 -0.0091987635585278 0)
(1.0038535318207 -0.0097734977066598 0)
(1.0044036210154 -0.010309273865715 0)
(1.0049843612624 -0.010802732289033 0)
(1.0055946374341 -0.011256955562221 0)
(1.0062274637795 -0.011667051992741 0)
(1.0068881587109 -0.012046765267994 0)
(1.007567629159 -0.012389168481861 0)
(1.0082785740217 -0.01272035493395 0)
(1.0089952621648 -0.013003175699533 0)
(1.0097498256411 -0.013274771241703 0)
(1.0104878193926 -0.013444144141868 0)
(1.0112895924241 -0.013622454762245 0)
(1.0120255217052 -0.013658839051297 0)
(1.0128882498691 -0.013851177958887 0)
(1.0135804708289 -0.013886450973702 0)
(1.0145710739168 -0.014371826992245 0)
(1.0000008199492 -0.00043700236057208 0)
(1.0000409168128 -0.0012868948133336 0)
(1.0001181798477 -0.0021166986163462 0)
(1.000233497756 -0.0029257063308548 0)
(1.0003868115106 -0.0037122360552754 0)
(1.000577653994 -0.0044813889539371 0)
(1.0008059279632 -0.0052456850365171 0)
(1.0010723872449 -0.0060180027252933 0)
(1.0013782953114 -0.0068039595238914 0)
(1.0017252241189 -0.0076002784035934 0)
(1.0021139210593 -0.008396693930594 0)
(1.0025448622883 -0.009180332291634 0)
(1.0030173315475 -0.0099374583446204 0)
(1.0035309598091 -0.010658309548677 0)
(1.004083440536 -0.011335355814475 0)
(1.0046746189253 -0.011967682539369 0)
(1.0052999519262 -0.012550890935211 0)
(1.005958949868 -0.013088688400886 0)
(1.0066432949737 -0.013575285761214 0)
(1.007360182917 -0.014027253004403 0)
(1.008097555939 -0.014435758117783 0)
(1.008872713601 -0.014832000087077 0)
(1.0096526208592 -0.015171105047188 0)
(1.0104806551021 -0.015499509824998 0)
(1.0112850406367 -0.015707701776737 0)
(1.0121726449747 -0.015932174140513 0)
(1.0129733576755 -0.01598515716127 0)
(1.0139414935591 -0.01622823446112 0)
(1.0146861320676 -0.016266009024124 0)
(1.0158216163541 -0.016847526559352 0)
(1.0000008220944 -0.00049019719451499 0)
(1.0000420505429 -0.0014452574728296 0)
(1.0001217234329 -0.0023795422835187 0)
(1.0002409295397 -0.003292176069767 0)
(1.0003997742742 -0.0041811663915365 0)
(1.0005979649117 -0.0050523775940038 0)
(1.0008356244983 -0.0059202628314888 0)
(1.0011138222924 -0.0067997074997502 0)
(1.0014341795276 -0.007697190392018 0)
(1.0017986811529 -0.0086088865170418 0)
(1.0022083653066 -0.0095228545631196 0)
(1.002664044179 -0.0104242016662 0)
(1.0031651314513 -0.011297051848964 0)
(1.0037115144835 -0.012130107426601 0)
(1.0043007115787 -0.01291434788764 0)
(1.00493293447 -0.01364837099527 0)
(1.0056031343393 -0.014326637114944 0)
(1.0063115511036 -0.014953540267796 0)
(1.0070485100879 -0.015522239996072 0)
(1.0078231048193 -0.016052339026254 0)
(1.0086202072024 -0.016532939455849 0)
(1.0094620173463 -0.017000878814886 0)
(1.0103081238538 -0.017403097479171 0)
(1.0112136743137 -0.017796114971794 0)
(1.0120887937107 -0.018050353512912 0)
(1.0130675676777 -0.018329596412428 0)
(1.0139389650644 -0.018406086709023 0)
(1.0150174329676 -0.018708018449433 0)
(1.0158258845594 -0.018758481592733 0)
(1.0171156811358 -0.019447878026277 0)
(1.0000008135958 -0.00054145818633272 0)
(1.0000427878801 -0.0015983654361457 0)
(1.0001241578459 -0.0026343654433947 0)
(1.0002462274869 -0.0036484114749558 0)
(1.0004092925282 -0.0046381903315215 0)
(1.0006132686569 -0.0056103579103976 0)
(1.0008585370467 -0.0065813779222089 0)
(1.0011465295858 -0.0075682203610246 0)
(1.0014792718102 -0.0085782454950543 0)
(1.001859204689 -0.0096070600967256 0)
(1.0022876935737 -0.010641008473516 0)
(1.0027659267412 -0.011663142496389 0)
(1.0032934596056 -0.012655370548879 0)
(1.0038704882751 -0.013604812689187 0)
(1.0044943813793 -0.014500896251665 0)
(1.0051658357742 -0.015341745517114 0)
(1.0058792783973 -0.016120527764443 0)
(1.0066359201509 -0.016842304405281 0)
(1.007424581841 -0.017498965727598 0)
(1.0082566870227 -0.01811353841777 0)
(1.0091135485363 -0.018672888110422 0)
(1.010023166017 -0.019220155252737 0)
(1.0109367315845 -0.019693049234789 0)
(1.0119225998073 -0.020159013164708 0)
(1.0128713971084 -0.020466739308381 0)
(1.013945405429 -0.020809327896757 0)
(1.0148945219545 -0.02091910235163 0)
(1.0160851605783 -0.021286056044431 0)
(1.016976223555 -0.02136956303244 0)
(1.0184206750894 -0.022173258717137 0)
(1.0000007927114 -0.00059032938510463 0)
(1.000043039248 -0.0017448576705252 0)
(1.0001252226269 -0.0028789070319096 0)
(1.0002488748737 -0.0039912594511341 0)
(1.0004145081672 -0.0050792788969484 0)
(1.0006222798784 -0.0061504413326855 0)
(1.0008728622256 -0.0072232848846961 0)
(1.0011680808023 -0.0083169325369203 0)
(1.0015103933555 -0.009439657157022 0)
(1.0019027291762 -0.010586487794404 0)
(1.0023468178532 -0.011742017996669 0)
(1.0028442661613 -0.012887216534185 0)
(1.0033948154753 -0.014001744092725 0)
(1.0039990595707 -0.015071109162396 0)
(1.0046542741538 -0.016083118720418 0)
(1.0053617188134 -0.017035370522905 0)
(1.0061152733991 -0.017919657827327 0)
(1.0069173269703 -0.018741753097694 0)
(1.0077551463042 -0.019492237626565 0)
(1.0086428751008 -0.0201977994184 0)
(1.0095578173214 -0.020842770253014 0)
(1.0105344922506 -0.021477204118171 0)
(1.0115147182883 -0.02202853588408 0)
(1.0125816184969 -0.022577045629378 0)
(1.0136048934577 -0.022947151902369 0)
(1.0147771333473 -0.023365003611907 0)
(1.0158075783382 -0.023518975035803 0)
(1.0171161577929 -0.023963298163407 0)
(1.0180952432491 -0.024089130935274 0)
(1.0197046860643 -0.025023308638992 0)
(1.0000007579975 -0.0006363583940895 0)
(1.000042733107 -0.0018833708078912 0)
(1.0001247087332 -0.0031108871675697 0)
(1.0002484542437 -0.0043175208704568 0)
(1.0004147201279 -0.0055003195207608 0)
(1.0006239327255 -0.0066676049617931 0)
(1.0008770826608 -0.0078400350051303 0)
(1.0011764139536 -0.0090389372327427 0)
(1.0015248434088 -0.010273527275279 0)
(1.0019258182477 -0.011538248855187 0)
(1.0023814700663 -0.012815911254811 0)
(1.0028938606577 -0.014085391841914 0)
(1.0034629605113 -0.015324121997986 0)
(1.0040898096224 -0.016516022054149 0)
(1.0047716425509 -0.017647228324512 0)
(1.0055103283128 -0.01871476295539 0)
(1.0062992694967 -0.019708996834487 0)
(1.0071421481465 -0.020636537400912 0)
(1.0080247882234 -0.021486657754367 0)
(1.0089641711142 -0.022289855511354 0)
(1.0099335981086 -0.023027574717569 0)
(1.010974301896 -0.023757222530494 0)
(1.0120186598931 -0.024395333465561 0)
(1.0131650071187 -0.025036665916808 0)
(1.0142619241899 -0.02547966664166 0)
(1.0155328879548 -0.025985904589529 0)
(1.016646264163 -0.026196760997469 0)
(1.0180761484974 -0.026731975941675 0)
(1.0191473233058 -0.026909708462598 0)
(1.0209310293035 -0.027992647811465 0)
(1.0000007100976 -0.0006791291486688 0)
(1.0000418208481 -0.0020126361110348 0)
(1.0001224630725 -0.0033281625087869 0)
(1.0002446580454 -0.0046241624575951 0)
(1.000409412825 -0.0058973778741919 0)
(1.0006174422349 -0.0071569938582574 0)
(1.0008700780256 -0.0084258169969947 0)
(1.0011700010886 -0.0097274127482493 0)
(1.001520605877 -0.011071962692133 0)
(1.0019258659485 -0.012453325334495 0)
(1.0023883358659 -0.013852523200994 0)
(1.0029105519903 -0.015246366773137 0)
(1.0034927514574 -0.016610109259967 0)
(1.0041364615993 -0.017926123748582 0)
(1.004838940145 -0.019178844714964 0)
(1.0056027309864 -0.020364696568969 0)
(1.0064208376384 -0.021472588239694 0)
(1.0072983499442 -0.022510104457967 0)
(1.008219732862 -0.023465175835396 0)
(1.0092049335851 -0.024372295945224 0)
(1.0102232854844 -0.025209677673975 0)
(1.011322967831 -0.026042525775815 0)
(1.0124269635024 -0.026775953032032 0)
(1.0136490739271 -0.027520520434805 0)
(1.0148168050832 -0.028047577283364 0)
(1.0161846280848 -0.028655780833034 0)
(1.017380412198 -0.028937357038509 0)
(1.0189325660515 -0.029579298689077 0)
(1.0200986182057 -0.02982045198143 0)
(1.0220633932923 -0.031072540750371 0)
(1.0000006488683 -0.00071828206727258 0)
(1.0000402819504 -0.0021315514160008 0)
(1.0001184106123 -0.0035288519933205 0)
(1.0002373187521 -0.0049084892053729 0)
(1.0003982907222 -0.0062669161437864 0)
(1.0006023435322 -0.0076141942701737 0)
(1.0008511646731 -0.0089752931222741 0)
(1.001147872429 -0.0103760279383 0)
(1.001496342082 -0.011827561526838 0)
(1.0019010604268 -0.013323172343604 0)
(1.0023650264059 -0.014842122516539 0)
(1.0028912589318 -0.016359195125649 0)
(1.0034803117303 -0.017847543296163 0)
(1.0041342232687 -0.019288033579455 0)
(1.0048503486419 -0.020663417707506 0)
(1.0056319496891 -0.021969515524352 0)
(1.0064717168737 -0.023193791299738 0)
(1.007376259987 -0.024344929630727 0)
(1.0083287631418 -0.025409520516634 0)
(1.009352279095 -0.026426231045761 0)
(1.0104121800384 -0.027369774660068 0)
(1.0115638311837 -0.028313558736226 0)
(1.0127208865594 -0.029150854877659 0)
(1.0140128037946 -0.030009135215406 0)
(1.0152462904598 -0.030631849009494 0)
(1.0167066278511 -0.031356112259679 0)
(1.0179820576614 -0.031723147924082 0)
(1.0196548244334 -0.032489482898082 0)
(1.0209163212684 -0.032807767492016 0)
(1.0230655795288 -0.034250476872921 0)
(1.0000005741962 -0.00075352650106785 0)
(1.0000381148851 -0.002239214513928 0)
(1.0001125486886 -0.003711403057687 0)
(1.0002264144292 -0.0051682548916864 0)
(1.0003812855558 -0.0066059531356035 0)
(1.0005784911298 -0.008035444418757 0)
(1.0008200836016 -0.0094838570011381 0)
(1.001109606933 -0.010979242866088 0)
(1.001451413182 -0.012533749503484 0)
(1.0018504741528 -0.014140084737072 0)
(1.0023102520473 -0.015775800356619 0)
(1.0028342276278 -0.017413701086767 0)
(1.0034233287396 -0.019024952048181 0)
(1.0040800823585 -0.020588959046415 0)
(1.0048020494803 -0.022086887725437 0)
(1.0055931857149 -0.023513935848808 0)
(1.0064460166782 -0.024856223100344 0)
(1.0073686897995 -0.026123590095743 0)
(1.0083432627435 -0.027301366708182 0)
(1.0093959588613 -0.02843252348141 0)
(1.0104882918584 -0.029488097057682 0)
(1.0116829613747 -0.030550065090325 0)
(1.0128845085757 -0.031499507962212 0)
(1.0142380290204 -0.032481761850893 0)
(1.0155300549764 -0.033211806162173 0)
(1.017076129753 -0.034066314166483 0)
(1.0184261401297 -0.034533944362001 0)
(1.02021531486 -0.035443173703485 0)
(1.0215702111068 -0.03585399494899 0)
(1.0239039430529 -0.037508687011378 0)
(1.0000004873981 -0.00078465298443708 0)
(1.0000353413248 -0.0023349543210302 0)
(1.0001049329116 -0.0038746383389511 0)
(1.0002120406784 -0.0054017294634626 0)
(1.0003585283378 -0.0069121578641962 0)
(1.0005460404716 -0.0084177548517998 0)
(1.0007769940489 -0.0099477801940141 0)
(1.001055341102 -0.011532485314633 0)
(1.0013858926912 -0.013184993064341 0)
(1.0017740706405 -0.014897463433078 0)
(1.0022238015474 -0.016645808135614 0)
(1.0027389926332 -0.018400927703405 0)
(1.0033209852849 -0.020132127138666 0)
(1.0039727393511 -0.021817408714018 0)
(1.0046921511756 -0.023436489443451 0)
(1.0054837797676 -0.024983907229901 0)
(1.0063402354294 -0.026444632751936 0)
(1.0072710666783 -0.027829589206674 0)
(1.0082575446902 -0.029123103131761 0)
(1.009328888801 -0.030372379321078 0)
(1.0104430872145 -0.031544841749724 0)
(1.0116700866219 -0.032731297155054 0)
(1.0129057378506 -0.033800400746744 0)
(1.0143105398841 -0.034916270012401 0)
(1.0156517787281 -0.035764963959023 0)
(1.017274325037 -0.036763590324635 0)
(1.0186914437411 -0.037347013425079 0)
(1.0205900716578 -0.038417847058961 0)
(1.0220333604353 -0.038937947974391 0)
(1.0245476984436 -0.040825338952771 0)
(1.0000003898749 -0.00081154047058296 0)
(1.0000320009024 -0.0024183590821156 0)
(1.0000956698476 -0.0040178010944756 0)
(1.0001943948294 -0.0056077559361894 0)
(1.0003303234921 -0.007183917643312 0)
(1.000505413495 -0.0087589915065083 0)
(1.0007224348057 -0.010364320660577 0)
(1.0009857218685 -0.012032295957958 0)
(1.0013005063003 -0.01377699359855 0)
(1.0016726156881 -0.015590056082013 0)
(1.0021064131965 -0.017445838742533 0)
(1.0026062086144 -0.019313438153474 0)
(1.0031737697109 -0.021160426810073 0)
(1.0038124698477 -0.022963489633553 0)
(1.0045206096933 -0.024701027999749 0)
(1.0053032911451 -0.026366929512213 0)
(1.0061533868694 -0.027945225509161 0)
(1.0070817160196 -0.029447822822886 0)
(1.0080691108545 -0.030858388424567 0)
(1.0091474802669 -0.032228106900577 0)
(1.0102718149875 -0.033521160873786 0)
(1.0115188715465 -0.034837165685313 0)
(1.0127766514385 -0.036032455842535 0)
(1.0142203539774 -0.037290709817451 0)
(1.0155995318063 -0.038268615110803 0)
(1.0172867814271 -0.039424567846935 0)
(1.0187612262861 -0.040138486421911 0)
(1.0207594200939 -0.041388858183803 0)
(1.0222828355732 -0.042035367137526 0)
(1.0249695316555 -0.044174132415056 0)
(1.0000002832989 -0.00083415634934265 0)
(1.0000281490841 -0.0024892792035086 0)
(1.0000849110546 -0.0041405668828778 0)
(1.0001737620252 -0.0057857741908111 0)
(1.0002971213937 -0.0074203736550891 0)
(1.0004572505941 -0.0090579231042246 0)
(1.0006572511369 -0.010731784394185 0)
(1.0009018074814 -0.012476408322634 0)
(1.0011965223645 -0.014306790238076 0)
(1.0015475759259 -0.016214082976601 0)
(1.0019597175503 -0.018171179367725 0)
(1.0024376336609 -0.020145487017314 0)
(1.0029835024778 -0.022102977784482 0)
(1.0036011106329 -0.024019122348402 0)
(1.0042891675988 -0.02587114355107 0)
(1.0050533096057 -0.027652353125195 0)
(1.0058867366892 -0.02934603752522 0)
(1.0068015118955 -0.030965053062153 0)
(1.0077782543971 -0.032492653628059 0)
(1.0088512860664 -0.033983780733908 0)
(1.0099731794992 -0.03539976339098 0)
(1.0112267118332 -0.036848961225994 0)
(1.0124935222938 -0.038175724244322 0)
(1.0139617990283 -0.039584026192148 0)
(1.0153662881492 -0.04070051946637 0)
(1.0171041344966 -0.042026268565693 0)
(1.0186242518986 -0.042884364054969 0)
(1.0207094588479 -0.044330725707181 0)
(1.0223013138933 -0.045120428077932 0)
(1.0251461310348 -0.047525258175658 0)
(1.0000001694334 -0.0008525485499718 0)
(1.0000238501423 -0.0025478071086639 0)
(1.0000728382904 -0.0042430189308361 0)
(1.0001504941803 -0.0059358019621933 0)
(1.0002594906729 -0.0076214134719334 0)
(1.0004023746723 -0.0093142248705119 0)
(1.0005825474584 -0.011049536011545 0)
(1.0008050040421 -0.012863762305517 0)
(1.0010756644214 -0.014772774256153 0)
(1.0014009994397 -0.016767258561477 0)
(1.0017860831451 -0.018818758363563 0)
(1.0022359404261 -0.02089312493199 0)
(1.0027531332563 -0.022954871248484 0)
(1.003341845377 -0.024978337387602 0)
(1.0040011704481 -0.026939704114006 0)
(1.0047372572078 -0.028831806372286 0)
(1.0055436878656 -0.030637403662653 0)
(1.0064337323192 -0.032370321243752 0)
(1.0073880549178 -0.034013517271568 0)
(1.008442931987 -0.035625617757863 0)
(1.0095493734928 -0.037165201734106 0)
(1.0107946918448 -0.038749819514247 0)
(1.0120567188914 -0.040211696102593 0)
(1.0135333728944 -0.041776493351733 0)
(1.014949436792 -0.043039516879038 0)
(1.0167215763455 -0.044546203647586 0)
(1.0182739101303 -0.045560889549756 0)
(1.0204310036516 -0.047218011398914 0)
(1.0220782609393 -0.048165862041223 0)
(1.0250545313708 -0.050849479213021 0)
(1.0000000494587 -0.00086683288083106 0)
(1.0000191653328 -0.0025942354189342 0)
(1.0000596309281 -0.0043255747288978 0)
(1.0001249552828 -0.0060583373486787 0)
(1.0002180495405 -0.0077875673989513 0)
(1.0003417176549 -0.0095283890683645 0)
(1.0004996133227 -0.011317937749303 0)
(1.0006969883763 -0.01319447874047 0)
(1.0009400196491 -0.015174701285552 0)
(1.0012353935946 -0.017248837006827 0)
(1.0015884466685 -0.019387213750025 0)
(1.0020044914233 -0.021554274233518 0)
(1.0024864600822 -0.02371323926138 0)
(1.0030388882422 -0.025837359891859 0)
(1.0036612431648 -0.027901926158847 0)
(1.0043600935544 -0.029899384636707 0)
(1.0051295029362 -0.031812246946992 0)
(1.0059838071176 -0.033655309144813 0)
(1.0069040413308 -0.035411260227655 0)
(1.0079278657741 -0.037142363095333 0)
(1.0090055443918 -0.038804454449456 0)
(1.010227582077 -0.040524982776572 0)
(1.0114701389268 -0.042124140009524 0)
(1.012938350609 -0.043850201011575 0)
(1.0143508173979 -0.04526678193021 0)
(1.0161394097517 -0.046963480229031 0)
(1.0177085274286 -0.048145458221163 0)
(1.0199186414291 -0.050026216336134 0)
(1.0216068140734 -0.05114452189287 0)
(1.0246846797527 -0.054118765561731 0)
(0.99999992362929 -0.00087718748128225 0)
(1.0000141601216 -0.0026290368445475 0)
(1.0000454683499 -0.0043889245911872 0)
(1.000097493027 -0.0061542189664132 0)
(1.0001733901758 -0.0079197739277154 0)
(1.0002761993299 -0.0097014105936488 0)
(1.0004097698144 -0.01153798292765 0)
(1.0005795316269 -0.013469469023286 0)
(1.0007918523882 -0.015513308432638 0)
(1.0010535424805 -0.017659274734275 0)
(1.0013701460979 -0.019876620283528 0)
(1.0017471716532 -0.022128508336595 0)
(1.0021879399197 -0.024377050624671 0)
(1.0026972310083 -0.026594383713121 0)
(1.0032749694727 -0.028755113837237 0)
(1.0039279154555 -0.030851319257901 0)
(1.0046508849728 -0.032865741867357 0)
(1.0054588787086 -0.034813913960197 0)
(1.0063338469135 -0.036678567568528 0)
(1.0073139840116 -0.038524888276692 0)
(1.0083496706548 -0.040306762838094 0)
(1.0095333355106 -0.042161174489135 0)
(1.0107411027381 -0.04389791705962 0)
(1.0121835674646 -0.045787324160145 0)
(1.0135762222392 -0.047362178975494 0)
(1.0153616915809 -0.049254882024612 0)
(1.0169306075925 -0.050611315054758 0)
(1.0191708834868 -0.052724255252927 0)
(1.020882725152 -0.054023805800099 0)
(1.0240351922534 -0.057294258900956 0)
(0.99999978872226 -0.00088386615081023 0)
(1.0000089400359 -0.0026529104918586 0)
(1.0000306398304 -0.0044341107465095 0)
(1.0000686141123 -0.0062247047563148 0)
(1.0001262658653 -0.0080193731015234 0)
(1.0002068753714 -0.0098345892510287 0)
(1.0003144524544 -0.011710821172867 0)
(1.0004545031747 -0.013689635574256 0)
(1.0006335077831 -0.015789172699761 0)
(1.0008583084454 -0.01799876991292 0)
(1.0011346522757 -0.020286777335669 0)
(1.0014681017622 -0.022615197006981 0)
(1.0018624234806 -0.024945211719075 0)
(1.0023224152986 -0.02724773097528 0)
(1.0028487189797 -0.029496920295559 0)
(1.0034477701197 -0.031684311304749 0)
(1.0041157905021 -0.033793588534924 0)
(1.0048673747096 -0.035840280492892 0)
(1.0056869083648 -0.037808266210161 0)
(1.006611005235 -0.039763661193553 0)
(1.0075929722732 -0.041661171955004 0)
(1.0087232037494 -0.043644302785852 0)
(1.0098826121394 -0.04551728788988 0)
(1.0112806526259 -0.047568228399798 0)
(1.0126386455592 -0.049302218477601 0)
(1.0143975994458 -0.051391645449904 0)
(1.0159509956703 -0.052921207764445 0)
(1.0181912496639 -0.05526532879125 0)
(1.0199080748972 -0.056745345477589 0)
(1.0231103365525 -0.060306450898412 0)
(0.99999963971945 -0.00088725601087744 0)
(1.0000036807576 -0.0026669669608706 0)
(1.0000156243703 -0.0044628321483218 0)
(1.0000391931073 -0.0062720448532623 0)
(1.0000780002294 -0.0080890860815807 0)
(1.0001355410488 -0.009930930239984 0)
(1.000215925886 -0.011839420621242 0)
(1.0003246186547 -0.01385757815634 0)
(1.0004681104089 -0.016004296942094 0)
(1.0006531715886 -0.018268588745632 0)
(1.0008858098842 -0.020618117839294 0)
(1.0011715533054 -0.023013942867316 0)
(1.0015147396243 -0.025416593438504 0)
(1.0019199344095 -0.027795726208326 0)
(1.0023889427241 -0.030125359574132 0)
(1.0029271407531 -0.032396191793689 0)
(1.0035332117334 -0.034593674194585 0)
(1.0042192532182 -0.036732080237458 0)
(1.0049750617842 -0.038798233640919 0)
(1.0058308537669 -0.040855443722251 0)
(1.0067503475995 -0.042864582294518 0)
(1.0078105944679 -0.044968541992483 0)
(1.0089135393554 -0.046977287495095 0)
(1.0102439989839 -0.049185092755305 0)
(1.011561978311 -0.051080835595985 0)
(1.0132619069875 -0.05336896675584 0)
(1.0148048334244 -0.055067439215424 0)
(1.0169955926973 -0.057654501705546 0)
(1.0187372718745 -0.059279819884132 0)
(1.0219275691965 -0.063189746548179 0)
(0.99999945883188 -0.00088800668834315 0)
(0.9999985926787 -0.002673201443338 0)
(1.0000008644263 -0.0044781291223889 0)
(1.000009873503 -0.0063004890311599 0)
(1.0000295921906 -0.0081346165052148 0)
(1.0000637868657 -0.0099980255313997 0)
(1.0001164973627 -0.011933526654068 0)
(1.0001928118341 -0.013985245546296 0)
(1.0002989988338 -0.01617285418074 0)
(1.0004417868384 -0.018485196894109 0)
(1.0006275265506 -0.020889277976024 0)
(1.0008616949685 -0.023345252890527 0)
(1.0011492710304 -0.025813223402085 0)
(1.0014945961494 -0.02826173127635 0)
(1.0019009456916 -0.03066499728651 0)
(1.0023722970165 -0.033012786314964 0)
(1.0029105503557 -0.035293371788503 0)
(1.0035236457801 -0.037518924205007 0)
(1.0042097445244 -0.039682019135323 0)
(1.0049869928803 -0.041838728887171 0)
(1.0058389054769 -0.043963581821471 0)
(1.0068120160886 -0.046185726790111 0)
(1.0078548289018 -0.04834290854527 0)
(1.0090864479972 -0.050706572986093 0)
(1.0103672666365 -0.052790298698871 0)
(1.0119598790242 -0.055291107967801 0)
(1.01352073216 -0.057190133049582 0)
(1.0155903860092 -0.060089116301447 0)
(1.0174669126082 -0.061869639547661 0)
(1.0205401298491 -0.066464246386718 0)
(0.99999916055921 -0.00088771731968661 0)
(0.99999311980276 -0.0026765905863044 0)
(0.99998566227322 -0.0044894035646359 0)
(0.99997979671589 -0.0063251107339236 0)
(0.99998013518418 -0.0081771114235795 0)
(0.99999090158042 -0.0100635786405 0)
(1.0000164904644 -0.012028155645388 0)
(1.0000613907862 -0.014116666248619 0)
(1.0001314107249 -0.01634922764249 0)
(1.0002330158469 -0.018713964495322 0)
(1.0003724504578 -0.021176863899878 0)
(1.0005547616598 -0.023696597729991 0)
(1.0007850399728 -0.026232768042302 0)
(1.0010674153766 -0.028753076231955 0)
(1.0014061895515 -0.031232228586447 0)
(1.001804379358 -0.033659323237198 0)
(1.0022663891998 -0.036026064239817 0)
(1.0027966334359 -0.038343075258086 0)
(1.0034018838376 -0.04061090618765 0)
(1.0040896616835 -0.042876578078188 0)