/*--------------------------------*- C++ -*----------------------------------*\
| =========                 |                                                 |
| \\      /  F ield         | OpenFOAM: The Open Source CFD Toolbox           |
|  \\    /   O peration     | Version:  2112                                  |
|   \\  /    A nd           | Website:  www.openfoam.com                      |
|    \\/     M anipulation  |                                                 |
\*---------------------------------------------------------------------------*/
FoamFile
{
    version     2.0;
    format      ascii;
    arch        "LSB;label=32;scalar=64";
    class       volScalarField;
    location    "11.7";
    object      p;
}
// * * * * * * * * * * * * * * * * * * * * * * * * * * * * * * * * * * * * * //

dimensions      [0 2 -2 0 0 0 0];

internalField   nonuniform List<scalar> 
22000
(
0.013865456927315
0.013844454313838
0.013801155085748
0.013734394988894
0.013643686207176
0.013529096471039
0.013390919550768
0.01322946718619
0.013045000885359
0.012837741524344
0.012607903926601
0.012355730738163
0.012081503665622
0.011785546070905
0.01146821123683
0.011129888154069
0.010770987183613
0.010391961087405
0.0099932751419577
0.0095754545431166
0.0091390160303352
0.0086845720208528
0.0082126756371236
0.0077240533041624
0.0072192556772822
0.0066991830166612
0.006164291708777
0.0056157846600492
0.0050538100224292
0.0044800962519706
0.014258920183427
0.014236674610621
0.014191739799181
0.014123067231253
0.014030149216482
0.013912985068578
0.013771810446352
0.01360690554169
0.013418518197204
0.013206863020608
0.01297214889497
0.012714611645375
0.012434523338463
0.012132198400685
0.011807978964919
0.01146224722021
0.011095402661312
0.010707896375085
0.01030018196643
0.0098727915283333
0.0094262255913081
0.0089611179785821
0.0084779921422055
0.0079776232791995
0.0074604950046005
0.0069276144710461
0.0063792685739646
0.0058168805551162
0.0052401879836972
0.0046512334057501
0.014981788790966
0.014958580441873
0.014911790797145
0.014840426088051
0.014744011598181
0.014622544446341
0.01447624110604
0.014305360019988
0.014110129072421
0.013890746256911
0.013647404304509
0.013380323384779
0.01308975692592
0.01277600291991
0.012439383471341
0.012080267808093
0.011699034743073
0.011296130255119
0.010871984652097
0.010427139839221
0.0099620646586878
0.0094774308126044
0.0089737066613831
0.0084517623785339
0.0079119617342191
0.0073555364154233
0.0067824740082135
0.006194693732892
0.0055911913911549
0.0049747756655704
0.015989698225713
0.015965405369844
0.015916430870945
0.015841748817338
0.015740875742726
0.015613806458928
0.015460750280828
0.015281950237915
0.015077610897714
0.0148479042987
0.01459299516527
0.014313076679479
0.014008371827616
0.013679151482792
0.013325704764195
0.012948377321882
0.012547512389924
0.012123542450609
0.011676857525627
0.011208007041837
0.010717406851241
0.010205776483082
0.0096734970438515
0.0091215684967966
0.0085501711917487
0.0079608492086958
0.00735313634361
0.0067296377051159
0.0060882288227843
0.0054327680828436
0.017244611383195
0.017219076624866
0.017167590505753
0.01708907897056
0.01698303499272
0.01684944022797
0.016688489647083
0.01650040420157
0.016285355628714
0.016043477553455
0.015774891761884
0.015479748915372
0.015158224462524
0.014810545607698
0.014436949436362
0.014037741218306
0.013613207269807
0.01316375144659
0.012689699198336
0.012191597481004
0.011669779557654
0.011125013993549
0.010557552797519
0.0099685505974237
0.0093579311014826
0.0087276311297999
0.008076575022539
0.007408254868483
0.0067190868224018
0.0060143257053285
0.018713218132303
0.018686354944431
0.01863217968883
0.018549565812624
0.018437976369641
0.018297369966323
0.018127915213179
0.017929797648874
0.017703141051567
0.017448024135038
0.017164507323729
0.016852679276723
0.016512646047513
0.016144569205787
0.015748608806501
0.015325006595577
0.014873963799403
0.014395833329482
0.013890844061273
0.013359522569455
0.012802081553368
0.012219331437744
0.011611345125438
0.010979449476517
0.010323231551918
0.0096450964963075
0.0089432003900412
0.0082221188987491
0.0074764644262336
0.0067132070770737
0.020365537173941
0.020337345686914
0.02028047711093
0.020193749661767
0.020076591058481
0.019928926841367
0.019750885693226
0.019542601879468
0.019304133170778
0.019035483782015
0.018736631007134
0.018407578265534
0.018048336026531
0.017658973305699
0.017239542494967
0.016790192453692
0.016311004270496
0.015802250203531
0.015264022527701
0.014696801013577
0.014100630792344
0.013476347730315
0.012823785747298
0.012144451197565
0.011437504048654
0.010705881621697
0.0099467998046239
0.0091660972574845
0.0083562229639179
0.0075261443903911
0.022173808275821
0.022144373806224
0.022084978523199
0.021994384946961
0.021871980692133
0.02171764755901
0.021531459465391
0.021313481941495
0.021063686784944
0.02078198183602
0.02046823677891
0.020122343358556
0.019744186495133
0.019333711303788
0.018890826758129
0.018415553626822
0.017907811225334
0.017367754058962
0.016795289584226
0.016190815272207
0.015554151893813
0.014886133305139
0.01418628348201
0.013456283110073
0.012694762212195
0.011905239623679
0.011083807523955
0.010237728087949
0.0093569175273536
0.0084525830381067
0.024111801323709
0.024081290577538
0.024019699554681
0.023925737006239
0.023798746143851
0.023638553789475
0.023445163358187
0.023218553240158
0.022958588313462
0.022665056934381
0.022337695061277
0.02197625414769
0.021580460858665
0.021150101627085
0.02068490217165
0.020184715015855
0.019649250424392
0.019078501248563
0.018472134479716
0.017830420706015
0.017152890052636
0.016440335333439
0.01569188789945
0.014909382770572
0.014090804936026
0.013240286741275
0.012352603011343
0.011436576500251
0.010479217400701
0.0094941584970331
0.026154453751927
0.02612310903614
0.026059806072849
0.02596320389258
0.025832597671632
0.025667747927344
0.02546857173708
0.025234942028454
0.024966596017619
0.02466317948074
0.024324268263323
0.023949444086316
0.023538241419192
0.023090251194495
0.022604973573438
0.022082049010117
0.021520927478244
0.02092139043827
0.020282803071674
0.019605255998775
0.018887914760644
0.018131480329799
0.017334598543251
0.016499223250922
0.015622565834803
0.014709380044576
0.013752921707241
0.012763671798905
0.011725369956956
0.010654190600388
0.028277742678354
0.028245873259832
0.028181477959633
0.028083171583782
0.027950198146006
0.027782241314499
0.027579117286667
0.027340576644778
0.027066209747854
0.026755498003319
0.02640783200768
0.02602259498781
0.025599095929111
0.025136693022342
0.02463461830853
0.024092254075722
0.023508737359898
0.022883583387397
0.022215791629632
0.021505210758481
0.020750564203387
0.019952397683014
0.019108774138791
0.018221713183469
0.017287520036855
0.016311544381944
0.015285318783623
0.014221001916384
0.013098702140951
0.011937176948815
0.030458716045294
0.030426687663906
0.030361934535498
0.030263032336983
0.030129171191381
0.029959949213462
0.029755069989571
0.029514147899739
0.029236610347789
0.028921755264119
0.028568765758003
0.02817680003471
0.027744911111385
0.027272188411552
0.026757555854069
0.026200090415291
0.025598566050109
0.024952171408342
0.024259479649007
0.023520022502426
0.02273200900646
0.021895744141403
0.021008617508047
0.020072636223088
0.019083082131438
0.018045835340462
0.016950605375046
0.015811003716084
0.014603532759379
0.013348588007478
0.032675628782306
0.032643847104696
0.032579558271049
0.032481301833977
0.032348210726529
0.032179791161892
0.031975626161776
0.031735183966028
0.031457717192392
0.031142325469275
0.030787966847016
0.0303935521363
0.029957852753815
0.029479656658104
0.028957544708209
0.028390242625916
0.027776116730297
0.027113965634294
0.026401882239366
0.025638995701451
0.024822936776932
0.023953659532962
0.023027808232013
0.02204722465562
0.021006151631844
0.019910653678977
0.018749005369889
0.017535325092648
0.016243627911029
0.014895101807778
0.03490814633562
0.034877042219762
0.034814088455455
0.034717798336428
0.03458724827236
0.034421848952286
0.034221057751485
0.033984190362013
0.033710316841034
0.03339832897768
0.033046947955147
0.032654821327773
0.032220419319854
0.031742202804738
0.031218379763177
0.030647286478439
0.030026839393918
0.029355392426048
0.028630502725242
0.02785081645853
0.027013326678889
0.026117503281846
0.025159217733955
0.024139907518568
0.023052816563291
0.021903873061009
0.020679848962103
0.019395361124533
0.018021689220424
0.016580776831875
0.037137522155368
0.03710753631947
0.037046806333866
0.036953834672745
0.036827646697038
0.036667557390123
0.036472896722892
0.036242825919091
0.035976230432596
0.035671790831139
0.035327985466941
0.034943190038319
0.034515561355442
0.034043216842385
0.033523969158128
0.032955737378563
0.032335951338441
0.031662477737816
0.030932281692842
0.030143466069478
0.02929230283887
0.028377701389875
0.027394634738512
0.026344061735909
0.025218020304137
0.024022284314347
0.022741771708413
0.021391672144375
0.019940018453257
0.018409317457828
0.039346763584691
0.039318331588299
0.039260704688107
0.039172392945564
0.039052380152544
0.038899889002644
0.038714123689888
0.038494093378247
0.038238502531385
0.037945824406738
0.037614296954596
0.037242023629882
0.036826843683818
0.036366523966139
0.035858469694775
0.035300165756084
0.034688529785726
0.034020909386183
0.033293632407518
0.03250420615784
0.031648109332378
0.030723613971561
0.029724687359946
0.028651714094474
0.027495367287741
0.026261171891387
0.024931927384526
0.023523287609076
0.021999545867356
0.020383323877287
0.041520770468423
0.041494309470811
0.0414406299841
0.041358270140528
0.041246183938186
0.041103508198176
0.040929326931001
0.040722504540709
0.040481574038749
0.040204811915706
0.03989022564259
0.039535655123654
0.039138628407424
0.038696564869953
0.038206460861595
0.037665362065701
0.037069661373475
0.03641616889682
0.035700543692015
0.034919659377485
0.03406814093295
0.033143558699745
0.03213877071276
0.031053494796172
0.029876879664969
0.02861409898811
0.027245593762736
0.025787355572487
0.024199432339645
0.022504020788704
0.043646424586834
0.04362232209327
0.043573376107935
0.043498174292863
0.043395655014768
0.043264879196808
0.043104820283932
0.042914209483369
0.042691422901415
0.042434556698324
0.042141405271195
0.041809561937511
0.041436259769687
0.041018585075193
0.040553136859584
0.040036528638291
0.039464630174544
0.038833710269993
0.038138743908543
0.037375949689027
0.036539055366912
0.03562488481106
0.034625095694859
0.033538658240695
0.032353024456624
0.031072899411674
0.029676115894365
0.028178921466569
0.026536641537237
0.024770548696778
0.045712620809933
0.045691226433942
0.045647723920129
0.04558077176183
0.045489307592723
0.045372329683594
0.045228715882761
0.045057080776487
0.044855662703429
0.044622398123597
0.04435489198231
0.044050514887526
0.043706230971898
0.043318817181181
0.042884500294841
0.042399481082388
0.041859124742052
0.041259167550385
0.040593905225457
0.039858894384019
0.039046944462223
0.03815410820453
0.037170781047332
0.036095139658648
0.03491278621841
0.033627828769044
0.032215123166311
0.030691045174357
0.029005613971768
0.027179175517587
0.047710237994288
0.047691861034258
0.047654426363257
0.047596682098468
0.04751758205372
0.047416078137101
0.047290969751196
0.047140774053376
0.046963616040836
0.046757298580419
0.046519268073026
0.046246701484108
0.045936329581995
0.045584649956689
0.045187556674055
0.044740863927996
0.04423947378495
0.043678605705633
0.043051912047355
0.042354282485722
0.041577625508323
0.040717193352962
0.03976210153097
0.038709709845721
0.037543716929404
0.036267608422804
0.034852956872302
0.033315771531818
0.031599790319465
0.029724112475242
0.049632049895451
0.049616963595168
0.049586137926311
0.049538417446959
0.049472794792791
0.04938820245829
0.04928338159686
0.049156767257331
0.049006393392108
0.048829957214017
0.048624784940709
0.048387894004539
0.048115830119925
0.047804847463615
0.047450566188144
0.047048440060131
0.046592979197061
0.046078893266862
0.045499281635298
0.044848337656879
0.044117175565293
0.043300156331295
0.042385208110664
0.041368718464166
0.04023257209988
0.038979641892969
0.037578486499524
0.036044710517866
0.034313935446241
0.032402302570321
0.051472594058701
0.051461013693592
0.051437247510764
0.051400226445905
0.051349003052811
0.051282517272108
0.051199472942107
0.051098244388066
0.050976802386488
0.050832769736641
0.050663389331875
0.05046554544067
0.050235649386965
0.049969746789307
0.049663264759902
0.049311323117458
0.048908155750813
0.048447942269069
0.047923401617157
0.047327918709091
0.046652107246194
0.045889156712969
0.045026275410325
0.04405827858395
0.042965740253127
0.041750095723948
0.04037748627209
0.038864608120462
0.037138712643995
0.035211646670115
0.053228126079005
0.053220091218207
0.053203584458175
0.053177680428205
0.053141547764313
0.053094120060421
0.053034028438619
0.05295958292378
0.052868722575847
0.052759053851188
0.052627795627662
0.052471738117534
0.052287206716792
0.052070052139816
0.051815569624171
0.051518545128048
0.05117307110606
0.050772742958575
0.050310154825693
0.049777635175951
0.049165826594282
0.048466064456779
0.047666034242915
0.046757363885068
0.045721661098459
0.044555136628146
0.043224299006233
0.041741359557512
0.04003283054501
0.038116091840525
0.054896799057454
0.054892149959103
0.054882558046941
0.054867511271247
0.054846510852918
0.05481849113649
0.05478197252154
0.05473513012594
0.054675844208121
0.054601678730586
0.054509828931913
0.054397054428516
0.054259692228756
0.054093479664298
0.053893649617331
0.053654658170802
0.053370497603665
0.053034087966948
0.052638042878984
0.052173346038248
0.051631164201176
0.051000019764709
0.050269717547617
0.049425750710383
0.04845603065315
0.047343288188748
0.046067317729989
0.044609309092502
0.042913298390415
0.040970166477087
0.05647886764723
0.056477847184514
0.056474792085259
0.056469985874611
0.056463397901336
0.056454007959703
0.056440503013757
0.056421155352699
0.056393867221479
0.056355994337342
0.056304501603904
0.056235993624885
0.056146806116893
0.056032726374483
0.055889174135965
0.055710572493432
0.055490962927504
0.055222706646755
0.054898390813386
0.054507698302023
0.054042358491738
0.05348806263218
0.052837334125957
0.052068482228893
0.051178666920877
0.050132312920611
0.048938653240318
0.047528374043284
0.045905510165064
0.043833105273888
0.0039303542950398
0.0034071152425335
0.0028754780552888
0.0023365511596616
0.0017912765805819
0.0012403760126173
0.00068449041836075
0.00012427694808137
-0.00043957895051353
-0.001006368982016
-0.0015753635620552
-0.0021458213685816
-0.0027170028722406
-0.0032881758448472
-0.0038586135566777
-0.0044275940215772
-0.0049944024504828
-0.005558334335945
-0.0061186978768269
-0.0066748156528066
-0.0072260260957148
-0.007771682895612
-0.0083111515657594
-0.0088438017942925
-0.0093690046642799
-0.0098862128440985
-0.010395142085254
-0.010895357802497
-0.011386348395505
-0.011867623313308
-0.012338761695769
-0.012799410354569
-0.01324926690196
-0.013688064150493
-0.014115570741788
-0.014531586391377
-0.014935952403362
-0.015328538682121
-0.015709263932798
-0.016078064740661
-0.016434939766875
-0.01677988134321
-0.017112973903642
-0.017434246293524
-0.017743889064445
-0.01804193235982
-0.01832872862594
-0.018604244580893
-0.018869147991199
-0.019123312931303
0.004089697773137
0.0035580309776414
0.0030168690965796
0.0024683416257239
0.001913760419773
0.0013536927504113
0.00078853742458519
0.00021880115521543
-0.00035490662452894
-0.00093190323849337
-0.0015114495599049
-0.002092785972345
-0.0026751627806829
-0.0032578408883532
-0.0038400785807117
-0.0044211271417198
-0.0050002359727048
-0.0055766580129656
-0.0061496523652534
-0.0067184872756663
-0.0072824445590941
-0.0078408266526045
-0.008392967632789
-0.008938251341652
-0.0094761279737715
-0.010006031820442
-0.010527157409819
-0.011038915687077
-0.011540849022575
-0.012032541278029
-0.012513586256053
-0.012983592952949
-0.013442205359352
-0.013889106420085
-0.014324026837252
-0.014746733834693
-0.015157046926957
-0.015554813526476
-0.015939944686878
-0.016312359799742
-0.016672066235825
-0.017019037709068
-0.017353391971851
-0.017675121612731
-0.017984488909545
-0.018281427087858
-0.018566419677964
-0.018839142823124
-0.019100410070673
-0.019349052645488
0.0043891441777927
0.0038354128694565
0.0032696260507416
0.0026962400667137
0.0021175761552536
0.0015340659296224
0.00094572775057895
0.00035284781459923
-0.00024404169645454
-0.00084424431141895
-0.0014469515771465
-0.0020513320945702
-0.0026565949286582
-0.0032619799025926
-0.0038667211551955
-0.0044700355109374
-0.0050711329003276
-0.0056692260427918
-0.0062635340764652
-0.006853285947342
-0.0074377256674378
-0.008016115952545
-0.0085877380628998
-0.0091518853811373
-0.0097078513496101
-0.010254942838658
-0.01079258480544
-0.011320211633693
-0.011837290552751
-0.012343326779231
-0.012837864328772
-0.013320482820941
-0.0137908061236
-0.014248498153022
-0.014693277034344
-0.0151248976478
-0.015543178227401
-0.015947958779899
-0.016339161621159
-0.016716697924218
-0.017080605474922
-0.017430839146387
-0.017767582115755
-0.018090772981363
-0.018400809478517
-0.018697470706853
-0.018981509754172
-0.019252133793365
-0.019510533865954
-0.019753724338034
0.0048113365751005
0.0042228328286861
0.003618773019971
0.003007298538584
0.0023922368773024
0.0017737434829147
0.00115120535321
0.00052455415085202
-0.00010579594184171
-0.00073913278886811
-0.0013745614765111
-0.0020111689384284
-0.0026481315053391
-0.003284688146488
-0.0039200688164656
-0.0045534712646522
-0.005184078688377
-0.0058110750284354
-0.0064336479202169
-0.0070509909715853
-0.007662308865911
-0.0082668215331736
-0.0088637669697043
-0.0094524062472452
-0.010032033703147
-0.010601983024721
-0.011161598764859
-0.011710269765455
-0.012247425950355
-0.012772535811867
-0.013285111857727
-0.013784707294752
-0.014270925936941
-0.01474341199402
-0.01520186934608
-0.015646034858243
-0.016075719364891
-0.016490745501715
-0.016891040341991
-0.017276493750094
-0.017647170211225
-0.018002986201486
-0.01834419381845
-0.018670642684473
-0.018982885845956
-0.019280468487881
-0.019564457000018
-0.019833347582792
-0.020088699768877
-0.020324743758845
0.0053469622907377
0.0047125323926367
0.0040579888719066
0.0033965468370377
0.0027340273325554
0.0020701346990653
0.0014033459248731
0.00073310119106183
5.9669109800663e-05
-0.00061620711755947
-0.0012935199575749
-0.0019712576534468
-0.0026485644934534
-0.0033246891070253
-0.0039988657272176
-0.0046702759834487
-0.0053380766759442
-0.0060014233461649
-0.0066594735436285
-0.0073113885763315
-0.0079563404197176
-0.0085935174551461
-0.0092221275550721
-0.0098414005105907
-0.010450591686899
-0.011048985567026
-0.011635899829023
-0.012210686207248
-0.012772736962939
-0.013321484751992
-0.01385640981087
-0.0143770346195
-0.014882936205983
-0.015373731064579
-0.015849100710358
-0.016308755570228
-0.016752490949036
-0.017180103117603
-0.017591516227858
-0.017986588622439
-0.018365404656866
-0.018727828305507
-0.019074176998649
-0.019404187483156
-0.019718573852051
-0.020016596888583
-0.020299665817459
-0.020565421008885
-0.020815831017741
-0.021041690305331
0.0059908081290819
0.0053000471859038
0.0045833437981659
0.0038605282613195
0.003139948598687
0.0024206666172928
0.0016999483741226
0.0009766048264381
0.00025074636979131
-0.00047682160738605
-0.0012049435738743
-0.0019324873681196
-0.0026585620720449
-0.0033824328372807
-0.0041033434185599
-0.004820459148505
-0.0055329082438315
-0.0062398164932647
-0.0069403107830069
-0.0076335197276322
-0.0083185815268055
-0.0089946499853467
-0.0096608964156086
-0.010316511076021
-0.010960707795677
-0.011592732199978
-0.012211867388855
-0.012817429173703
-0.013408772426751
-0.013985291931283
-0.014546431901988
-0.015091679027475
-0.015620577070176
-0.016132708275469
-0.016627724337415
-0.017105302529097
-0.017565214341123
-0.018007222409122
-0.018431237565046
-0.018837078007776
-0.019224835507834
-0.019594311956432
-0.019945876601257
-0.020279141951523
-0.020594971669279
-0.020892321658837
-0.021172939900871
-0.021433524318889
-0.021676414605175
-0.021888402986669
0.0067403794572304
0.00598328295007
0.0051929485564105
0.0043975761253285
0.0036086201367167
0.0028242661556107
0.0020402219145883
0.0012545172307059
0.00046710085255564
-0.00032111665702793
-0.0011087905959622
-0.0018946459834005
-0.0026777548766715
-0.0034574065705641
-0.0042328591553164
-0.0050032606651936
-0.0057677071449403
-0.0065252914697988
-0.0072751075338682
-0.0080162488198525
-0.0087478168265545
-0.0094689276675619
-0.01017871356635
-0.010876324306384
-0.011560933164534
-0.012231745744342
-0.012888001544123
-0.013528973746225
-0.01415397532357
-0.014762358666114
-0.015353525441295
-0.015926919283945
-0.016482041651583
-0.017018431835812
-0.017535700612251
-0.018033482397524
-0.01851151051644
-0.018969502953723
-0.019407338995626
-0.019824785565822
-0.020221918560461
-0.020598468154949
-0.020954824583393
-0.021290470602046
-0.021606377154296
-0.021901192904792
-0.022176945432931
-0.022429345786989
-0.022660977082095
-0.022854134291882
0.0075958811424198
0.0067626869059522
0.005887246019739
0.0050081610431986
0.0041406328926847
0.0032816798425543
0.0024250417578343
0.0015677949815301
0.00070973407340567
-0.00014806581160186
-0.0010040223801978
-0.0018566958820899
-0.0027051206800517
-0.0035486175438811
-0.0043864625149218
-0.0052177832970384
-0.0060416380813637
-0.0068570817021093
-0.0076631706548164
-0.0084589592432389
-0.0092435084333144
-0.010015892825931
-0.010775201479843
-0.011520539041775
-0.012251032152053
-0.012965839117827
-0.013664149678797
-0.014345187303836
-0.015008214908569
-0.015652534437763
-0.016277495774471
-0.016882490112012
-0.017466964762282
-0.018030405076462
-0.018572365683195
-0.01909242537517
-0.019590260142413
-0.02006552973898
-0.020518057411085
-0.020947545418613
-0.021354021483676
-0.021737134867906
-0.022097250275346
-0.022433723606335
-0.022747559050265
-0.023037116439411
-0.023304586212358
-0.023544681170118
-0.023760050386484
-0.023927989242715
0.0085597344898337
0.0076407993317443
0.0066685991010272
0.0056945044863355
0.0047381750683282
0.003795110614592
0.002856605885932
0.0019185857783079
0.00098070716244226
4.4287217019233e-05
-0.00088879488384454
-0.001816911286434
-0.002739061000301
-0.0036546045956264
-0.0045628375303025
-0.0054628614473338
-0.0063536885664553
-0.0072343285561916
-0.0081037948539867
-0.0089610973062121
-0.0098052507317217
-0.01063528219144
-0.011450230944573
-0.012249149281776
-0.01303110943583
-0.013795214759096
-0.014540597134688
-0.015266421861768
-0.015971892310398
-0.016656250327441
-0.017318782411874
-0.017958816252937
-0.01857573072662
-0.019168944088521
-0.019737936993592
-0.020282217838675
-0.020801382926135
-0.021295017036105
-0.021762859522119
-0.022204529720934
-0.02261996972328
-0.023008732922308
-0.023371099110341
-0.023706307044716
-0.024015287906679
-0.02429617965539
-0.024551165437151
-0.024774045823824
-0.024967225365817
-0.025102770220404
0.0096360811315442
0.0086217661339292
0.0075408548850253
0.0064602400661342
0.0054047941020209
0.0043680468307686
0.0033382991174022
0.0023101199293827
0.0012830687774026
0.00025880258977759
-0.0007604377697449
-0.0017728160564067
-0.0027773005892537
-0.0037733000889328
-0.0047601298947223
-0.0057368576199394
-0.0067024388754649
-0.0076558289420968
-0.0085959905955491
-0.0095218823609246
-0.010432465907498
-0.011326713158224
-0.012203605331204
-0.013062133915624
-0.013901307908165
-0.014720166677775
-0.015517774299178
-0.016293227873229
-0.017045659670362
-0.017774240116271
-0.018478178811512
-0.019156726717253
-0.019809177579846
-0.020434867427303
-0.021033182304837
-0.021603542555163
-0.022145440184412
-0.022658364853185
-0.023141943758081
-0.023595690814014
-0.024019429711114
-0.024412599183138
-0.024775336774072
-0.025106784929942
-0.025407641295995
-0.025675988032126
-0.025913614395618
-0.026113891620834
-0.026277153232054
-0.026372197372643
0.010830360784904
0.0097109934143859
0.0085089959242553
0.0073100266652511
0.0061450245936688
0.0050049766699994
0.0038745082420515
0.0027465908864917
0.0016207689838868
0.00049918324779079
-0.00061548781790947
-0.0017211898491962
-0.002816873113608
-0.0039020006680068
-0.0049759026195011
-0.0060376016443789
-0.007085984506009
-0.0081199410104652
-0.0091383743224713
-0.010140183706972
-0.011124269220668
-0.01208953839451
-0.013034904492002
-0.013959288149909
-0.014861624686162
-0.015740878903748
-0.016596035462371
-0.017426111696518
-0.018230155976963
-0.019007254465969
-0.019756524368901
-0.020477125283904
-0.021168246783304
-0.021829125477447
-0.022459028949192
-0.023057270246006
-0.023623205716615
-0.024156209291495
-0.024655754657594
-0.025121229930032
-0.025552289370433
-0.025948240545337
-0.026309019547546
-0.026633691655664
-0.026922573531329
-0.027173881205349
-0.027388481941373
-0.027559488089232
-0.027686661351196
-0.027729002240294
0.01214867195767
0.010914463478432
0.0095787846194529
0.0082494627895381
0.0069643205663282
0.0057112162760614
0.0044703885087404
0.0032329352135989
0.0019984781003394
0.0007698248563155
-0.00044981357298137
-0.0016581652302647
-0.002854187739809
-0.0040374054795602
-0.0052071521880515
-0.0063623887373366
-0.0075019175265192
-0.0086245500950077
-0.009729119112716
-0.010814454793407
-0.011879385671516
-0.012922744155269
-0.013943364071221
-0.014940083713536
-0.015911752886057
-0.016857249826348
-0.017775466992083
-0.01866532911133
-0.01952578627507
-0.020355826368804
-0.021154457511146
-0.021920731947542
-0.022653714078734
-0.023352523889103
-0.024016281834375
-0.024644177046405
-0.025235387829003
-0.025789162841267
-0.026304753380394
-0.0267814260328
-0.027218563266228
-0.027615329672508
-0.027971391089621
-0.028285540145401
-0.028557982911286
-0.028786336886152
-0.028971787195509
-0.029105874680522
-0.029189401362232
-0.029174607526371
0.013598298165365
0.012238422718378
0.010755818970918
0.0092841891889238
0.0078685246282688
0.006492643842365
0.0051316739492011
0.003774655259817
0.0024214432388166
0.0010757120586668
-0.00025870250464143
-0.0015793137272798
-0.0028851127737759
-0.0041756899698656
-0.005450365708754
-0.006708017232498
-0.0079473444308853
-0.0091670665022557
-0.010365934013645
-0.011542696903151
-0.012696099921749
-0.013824887295717
-0.014927800009729
-0.01600358082461
-0.01705098079214
-0.018068778340755
-0.0190557598273
-0.020010743492824
-0.020932566110712
-0.021820102112922
-0.022672232801612
-0.023487886719696
-0.024265980838603
-0.025005500919135
-0.025705390833297
-0.026364698367257
-0.026982382210833
-0.027557550309458
-0.028089173526548
-0.028576382998151
-0.029018222050256
-0.029413671326431
-0.029762111192622
-0.030061872552611
-0.030313185946639
-0.030512855323478
-0.030661692148857
-0.030752021865583
-0.030780308917788
-0.030698198979322
0.015185633777951
0.013690116055215
0.012046850262026
0.0104204530033
0.008863826342903
0.0073554675616008
0.0058644224887431
0.0043775535245057
0.0028952150674878
0.0014221688973301
-3.7059974522244e-05
-0.0014797945022462
-0.0029050868963865
-0.0043125903897636
-0.0057015871403351
-0.007070841703234
-0.0084189284610952
-0.0097444580166964
-0.011046085325438
-0.012322466573907
-0.013572248409823
-0.014794071849353
-0.01598656992392
-0.01714837515349
-0.018278125201708
-0.019374484031415
-0.020436117135487
-0.021461721332389
-0.022450004275577
-0.02339971107793
-0.0243095788334
-0.025178394034536
-0.026004906817853
-0.026787946359998
-0.027526259866521
-0.028218719825573
-0.028864055821219
-0.029461169430067
-0.030008774739229
-0.030505744132628
-0.030950843607972
-0.03134274120675
-0.031680451797712
-0.031962130089171
-0.032187258452235
-0.032352929635117
-0.032458666280917
-0.032496928991573
-0.032461783474349
-0.032300156434563
0.016916036383142
0.015275294349659
0.013457817330451
0.011664418763181
0.0099565467673635
0.0083060216453215
0.0066748489584358
0.0050476538282647
0.0034256134453199
0.001814814738255
0.00022051972346692
-0.001354444210058
-0.0029092172969292
-0.0044435013585689
-0.0059565039669424
-0.0074468427274864
-0.0089129420688286
-0.010353286198724
-0.011766419061126
-0.013150886951738
-0.014505220850234
-0.015827940754398
-0.01711755478758
-0.018372568947649
-0.019591491881708
-0.020772856928698
-0.021915192987058
-0.023017059181384
-0.024077018749263
-0.025093669446049
-0.026065589478194
-0.026991401124379
-0.027869675565293
-0.028699053563901
-0.029478080940677
-0.030205406808537
-0.030879538777347
-0.031499103904405
-0.032062572655798
-0.032568495239305
-0.03301532357327
-0.033401436053987
-0.033725306712229
-0.033985079833349
-0.034179133005449
-0.034304998567802
-0.034360992221689
-0.034338402430754
-0.034231363012804
-0.033980185725719
0.018793838531235
0.016998768142186
0.014993896638512
0.013021730829961
0.011152676422637
0.009350411388106
0.0075689945431749
0.0057908548385132
0.0040183947238434
0.0022592827993727
0.00051953425404134
-0.0011979470395345
-0.0028924183092377
-0.0045635953341775
-0.00621055650841
-0.0078317296860423
-0.0094253624848203
-0.010989793834616
-0.012523438615399
-0.014024713636082
-0.015492013752504
-0.016923717518511
-0.018318189138977
-0.019673790099911
-0.020988882869343
-0.022261852442615
-0.023491075562135
-0.024674955168231
-0.025811896195512
-0.026900328167788
-0.027938659980148
-0.028925322513677
-0.029858703741501
-0.030737219835804
-0.031559214036638
-0.032323074026873
-0.033027069741968
-0.033669544361235
-0.0342486518077
-0.03476269232002
-0.035209619450718
-0.035587702283298
-0.035894660651472
-0.036128570725883
-0.036287043723476
-0.03636724609165
-0.036366729100116
-0.036275944896844
-0.036087847773463
-0.035736239028824
0.020822108751051
0.01886405180387
0.016659032888101
0.014497013908842
0.012457440786865
0.01049418764142
0.0085524953856576
0.0066127602411586
0.0046791095993308
0.002761070459243
0.0008654001335633
-0.0010050131965983
-0.0028495656045511
-0.00466793554902
-0.0064590069080035
-0.0082209734545852