# Force coefficients  
# dragDir             : (1.00000000000000e+00 0.00000000000000e+00 0.00000000000000e+00)
# sideDir             : (0.00000000000000e+00 0.00000000000000e+00 -1.00000000000000e+00)
# liftDir             : (0.00000000000000e+00 1.00000000000000e+00 0.00000000000000e+00)
# rollAxis            : (1.00000000000000e+00 0.00000000000000e+00 0.00000000000000e+00)
# pitchAxis           : (0.00000000000000e+00 0.00000000000000e+00 -1.00000000000000e+00)
# yawAxis             : (0.00000000000000e+00 1.00000000000000e+00 0.00000000000000e+00)
# magUInf             : 1.00000000000000e+00
# lRef                : 1.00000000000000e+00
# Aref                : 1.00000000000000e+00
# CofR                : (0.00000000000000e+00 0.00000000000000e+00 0.00000000000000e+00)
#
# Time                	Cd                    	Cs                    	Cl                    	CmRoll                	CmPitch               	CmYaw                 	Cd(f)                 	Cd(r)                 	Cs(f)                 	Cs(r)                 	Cl(f)                 	Cl(r)                 
4.005                 	3.33289268422542e+00	3.04417636429727e-20	2.83583176820621e-01	-2.23866061882195e-19	2.29162614846786e+01	1.66780865991226e-19	1.66644634211271e+00	1.66644634211271e+00	1.82001747812712e-19	-1.51559984169740e-19	2.30580530730889e+01	-2.27744698962683e+01
4.01                  	3.34106733496866e+00	3.04874469691591e-20	2.90425340553228e-01	-2.24201982994822e-19	2.29443687766595e+01	1.67032860282202e-19	1.67053366748433e+00	1.67053366748433e+00	1.82276583766782e-19	-1.51789136797623e-19	2.30895814469361e+01	-2.27991561063829e+01
4.015                 	3.34923565115989e+00	3.05315957735926e-20	2.97214015190744e-01	-2.24526711282221e-19	2.29726904790817e+01	1.67276339173612e-19	1.67461782557994e+00	1.67461782557994e+00	1.82542137060408e-19	-1.52010541286816e-19	2.31212974866771e+01	-2.28240834714863e+01
4.02                  	3.35730895028338e+00	3.05776358170764e-20	3.04107451263012e-01	-2.24865417182877e-19	2.29997702575688e+01	1.67529052271959e-19	1.67865447514169e+00	1.67865447514169e+00	1.82817870180497e-19	-1.52240234363420e-19	2.31518239832003e+01	-2.28477165319373e+01
4.025                 	3.36546743550330e+00	3.06244777554774e-20	3.10914616092261e-01	-2.25210051879267e-19	2.30279148352651e+01	1.67785866924944e-19	1.68273371775165e+00	1.68273371775165e+00	1.83098105802683e-19	-1.52473628047205e-19	2.31833721433112e+01	-2.28724575272189e+01
4.03                  	3.37360743932547e+00	3.06707746660952e-20	3.17790990901963e-01	-2.25550944658917e-19	2.30555693282409e+01	1.68039996583236e-19	1.68680371966274e+00	1.68680371966274e+00	1.83375383916284e-19	-1.52704609250189e-19	2.32144648236919e+01	-2.28966738327899e+01
4.035                 	3.38141852804729e+00	3.07128388541695e-20	3.24854353464990e-01	-2.25861117583934e-19	2.30798166171220e+01	1.68271642034607e-19	1.69070926402364e+00	1.69070926402364e+00	1.83628061461692e-19	-1.52915222607522e-19	2.32422437938545e+01	-2.29173894403895e+01
4.04                  	3.38950516518352e+00	3.07596919814329e-20	3.31790270156097e-01	-2.26206207318358e-19	2.31067623728931e+01	1.68528509392834e-19	1.69475258259176e+00	1.69475258259176e+00	1.83908355383551e-19	-1.53148663402118e-19	2.32726575079712e+01	-2.29408672378151e+01
4.045                 	3.39749260878389e+00	3.08041146765205e-20	3.38764240751735e-01	-2.26533849921035e-19	2.31327685682522e+01	1.68772359297256e-19	1.69874630439194e+00	1.69874630439194e+00	1.84174416635517e-19	-1.53370301958996e-19	2.33021506886281e+01	-2.29633864478763e+01
4.05                  	3.40561378615320e+00	3.08511480495194e-20	3.45780863020270e-01	-2.26880407168203e-19	2.31595592022324e+01	1.69029930585886e-19	1.70280689307660e+00	1.70280689307660e+00	1.84455504610646e-19	-1.53604356561127e-19	2.33324496337425e+01	-2.29866687707222e+01
4.055                 	3.41370655578955e+00	3.08969332255173e-20	3.52824599826234e-01	-2.27218196542373e-19	2.31859959254024e+01	1.69280541633189e-19	1.70685327789478e+00	1.70685327789478e+00	1.84729008245947e-19	-1.53832075020430e-19	2.33624082253155e+01	-2.30095836254892e+01
4.06                  	3.42175936828830e+00	3.09433568011664e-20	3.59865471800116e-01	-2.27560383624569e-19	2.32121420640011e+01	1.69534838639677e-19	1.71087968414415e+00	1.71087968414415e+00	1.85006517040260e-19	-1.54063160239094e-19	2.33920747999011e+01	-2.30322093281010e+01
4.065                 	3.42978385334575e+00	3.09862779120351e-20	3.67005391359388e-01	-2.27877398619666e-19	2.32375753122803e+01	1.69770312134210e-19	1.71489192667288e+00	1.71489192667288e+00	1.85263451090227e-19	-1.54277173178192e-19	2.34210780079600e+01	-2.30540726166007e+01
4.07                  	3.43782763761565e+00	3.10335928107390e-20	3.74151346353709e-01	-2.28226514191040e-19	2.32631179594998e+01	1.70029621587663e-19	1.71891381880783e+00	1.71891381880783e+00	1.85546417993033e-19	-1.54512825182294e-19	2.34501936326767e+01	-2.30760422863230e+01
4.075                 	3.44580270753458e+00	3.10776442886165e-20	3.81296301553604e-01	-2.28551939463576e-19	2.32881451102300e+01	1.70270714343382e-19	1.72290135376729e+00	1.72290135376729e+00	1.85809536487690e-19	-1.54731892199073e-19	2.34787932610068e+01	-2.30974969594532e+01
4.08                  	3.45390409122987e+00	3.11254643559715e-20	3.88463250751014e-01	-2.28904835480238e-19	2.33140045425318e+01	1.70532020565046e-19	1.72695204561494e+00	1.72695204561494e+00	1.86094752743032e-19	-1.54969288387061e-19	2.35082361679073e+01	-2.31197729171563e+01
4.085                 	3.46174423631039e+00	3.11679334175620e-20	3.95678554076659e-01	-2.29218949424197e-19	2.33376578484444e+01	1.70764968373335e-19	1.73087211815520e+00	1.73087211815520e+00	1.86348935082116e-19	-1.55181001664554e-19	2.35354971254827e+01	-2.31398185714061e+01
4.09                  	3.46971050909133e+00	3.12150178773673e-20	4.02929978389472e-01	-2.29566697050353e-19	2.33620714666727e+01	1.71022225020151e-19	1.73485525454566e+00	1.73485525454566e+00	1.86629733958835e-19	-1.55414716081468e-19	2.35635364558674e+01	-2.31606064774779e+01
4.095                 	3.47764297162835e+00	3.12593985817993e-20	4.10175983824926e-01	-2.29894919355787e-19	2.33862535865579e+01	1.71264819476150e-19	1.73882148581418e+00	1.73882148581418e+00	1.86894518767050e-19	-1.55635120185251e-19	2.35913415784704e+01	-2.31811655946454e+01
4.1                   	3.48568325723332e+00	3.13057308362224e-20	4.17519980263683e-01	-2.30237526568469e-19	2.34107494264223e+01	1.71517968462926e-19	1.74284162861666e+00	1.74284162861666e+00	1.87170833881038e-19	-1.55865103044815e-19	2.36195094165541e+01	-2.32019894362905e+01
4.105                 	3.49379735887459e+00	3.13511451369448e-20	4.24791546753748e-01	-2.30573626267761e-19	2.34361560731228e+01	1.71765978629043e-19	1.74689867943730e+00	1.74689867943730e+00	1.87441551197516e-19	-1.56090406060571e-19	2.36485518464997e+01	-2.32237602997459e+01
4.11                  	3.50169137406286e+00	3.13965067719952e-20	4.32255495757693e-01	-2.30909511887148e-19	2.34589452383049e+01	1.72013999225278e-19	1.75084568703143e+00	1.75084568703143e+00	1.87712252611275e-19	-1.56315745839280e-19	2.36750729861838e+01	-2.32428174904261e+01
