/*--------------------------------*- C++ -*----------------------------------*\
| =========                 |                                                 |
| \\      /  F ield         | OpenFOAM: The Open Source CFD Toolbox           |
|  \\    /   O peration     | Version:  2112                                  |
|   \\  /    A nd           | Website:  www.openfoam.com                      |
|    \\/     M anipulation  |                                                 |
\*---------------------------------------------------------------------------*/
FoamFile
{
    version     2.0;
    format      ascii;
    arch        "LSB;label=32;scalar=64";
    class       volVectorField;
    location    "1.5";
    object      U;
}
// * * * * * * * * * * * * * * * * * * * * * * * * * * * * * * * * * * * * * //

dimensions      [0 1 -1 0 0 0 0];

internalField   nonuniform List<vector> 
22000
(
(1.0000001147018 -2.0191842847085e-05 0)
(1.0000212537153 -6.1146872123443e-05 0)
(1.0000556204042 -0.00010226608155221 0)
(1.0001131345613 -0.00014101697967566 0)
(1.0001951477773 -0.00017933418842737 0)
(1.0002975516005 -0.00021961476022521 0)
(1.0004365653546 -0.00026251857619305 0)
(1.0005790262108 -0.00029464912457125 0)
(1.0007030159642 -0.0003163702368137 0)
(1.0008299967349 -0.00034911866683817 0)
(1.0010120563652 -0.00040529181728053 0)
(1.0012663643627 -0.00048232415737612 0)
(1.0015360114243 -0.000576973133244 0)
(1.0018022753874 -0.00068644787081079 0)
(1.0021326708245 -0.00080396547335613 0)
(1.0025680768282 -0.00092001473610629 0)
(1.003069417146 -0.0010249273837044 0)
(1.0035969071519 -0.0011118548883054 0)
(1.0041494291855 -0.0011765753090691 0)
(1.0047338881365 -0.0012195199385837 0)
(1.0053396238439 -0.0012439409480848 0)
(1.0059519191571 -0.0012540515798306 0)
(1.0065634074608 -0.0012533305011952 0)
(1.0071726387853 -0.0012478035498099 0)
(1.0077771357698 -0.0012350637846867 0)
(1.0083765017967 -0.0012225392344315 0)
(1.0089670000072 -0.001204485208001 0)
(1.0095508072275 -0.0011917277893419 0)
(1.0101245568584 -0.0011646749223578 0)
(1.0106911081025 -0.0011564724608791 0)
(0.9999993348861 -5.9248400083225e-05 0)
(1.0000202982151 -0.00018010366152238 0)
(1.000052697486 -0.00030210682800458 0)
(1.000106686135 -0.0004166274582727 0)
(1.0001861582109 -0.00053088951441263 0)
(1.0002989042265 -0.00064404771940589 0)
(1.0004469690164 -0.00075753998316206 0)
(1.0005929131556 -0.00086042444036994 0)
(1.0007013310361 -0.00094853431439244 0)
(1.0008106846573 -0.0010459981446384 0)
(1.0010047658534 -0.0011843587888038 0)
(1.0012789812362 -0.0013874816769969 0)
(1.0015475210443 -0.001666997632285 0)
(1.0018039739513 -0.0020106602375299 0)
(1.0021374046062 -0.0023832778008128 0)
(1.0025854605984 -0.0027442818664441 0)
(1.0031017129921 -0.0030613068065656 0)
(1.0036428570119 -0.003315908606411 0)
(1.0042090012579 -0.0035008741068483 0)
(1.0048063986625 -0.0036214272836027 0)
(1.0054231136245 -0.0036874285305079 0)
(1.0060456360915 -0.0037138782728546 0)
(1.0066659986552 -0.0037096942129809 0)
(1.0072839402558 -0.0036906198149977 0)
(1.0078962636606 -0.0036531195180415 0)
(1.0085044759442 -0.0036167424420216 0)
(1.0091016247139 -0.003561854282313 0)
(1.0096965391644 -0.0035238088869772 0)
(1.0102745434703 -0.0034480385222846 0)
(1.010855962836 -0.0034233443910291 0)
(0.99999954423062 -9.8168750651019e-05 0)
(1.0000204782204 -0.00029412650058093 0)
(1.0000540494795 -0.00049231424111123 0)
(1.0001077458202 -0.00068132653396788 0)
(1.0001902170015 -0.00086883263234683 0)
(1.0003110251039 -0.0010506071722965 0)
(1.000471311532 -0.0012325559069347 0)
(1.000625535641 -0.00140661090534 0)
(1.0007228831488 -0.0015602791005706 0)
(1.0008206830828 -0.0017161290429125 0)
(1.001029190699 -0.0019285767489559 0)
(1.0013262521808 -0.0022527463316291 0)
(1.0016013331207 -0.0027135777785923 0)
(1.0018564898986 -0.0032874103450314 0)
(1.002197295219 -0.0039114744405597 0)
(1.0026609757955 -0.0045141814243575 0)
(1.0031943697798 -0.0050389928200159 0)
(1.0037527165285 -0.0054548810117333 0)
(1.0043365003593 -0.0057522357882521 0)
(1.0049519880675 -0.0059429673700049 0)
(1.0055852892961 -0.0060439219381208 0)
(1.0062240294819 -0.0060822273192345 0)
(1.006858628945 -0.0060724488110758 0)
(1.0074916359208 -0.006038663938577 0)
(1.0081165097176 -0.0059772715004344 0)
(1.0087402021574 -0.0059192529875616 0)
(1.0093478819231 -0.0058291191315546 0)
(1.0099604689719 -0.0057682521323274 0)
(1.0105445970628 -0.0056464682759486 0)
(1.0111487690997 -0.0056082962175513 0)
(0.99999999664367 -0.00013638967365543 0)
(1.0000206788084 -0.00040539525941918 0)
(1.0000556016446 -0.00067863244370181 0)
(1.0001111900412 -0.00094234255409386 0)
(1.0001960486586 -0.0012003221291405 0)
(1.0003242683274 -0.001449448190163 0)
(1.0004989745487 -0.0017004853591665 0)
(1.0006636496657 -0.0019429447981726 0)
(1.000754244261 -0.0021572588135043 0)
(1.000845756809 -0.0023698012026599 0)
(1.0010708196387 -0.0026569522190548 0)
(1.0013928724832 -0.0031005912983658 0)
(1.0016797749123 -0.0037381226101255 0)
(1.0019395508253 -0.0045367170057306 0)
(1.0022918727992 -0.005408148322084 0)
(1.0027744436424 -0.0062499277514346 0)
(1.0033281459394 -0.006980052164571 0)
(1.0039069953545 -0.0075532741511122 0)
(1.0045116791618 -0.0079576595627695 0)
(1.0051489477022 -0.0082118505082869 0)
(1.0058027200317 -0.0083417403616944 0)
(1.0064622142497 -0.0083869669019599 0)
(1.0071155345101 -0.0083676327430405 0)
(1.0077689546556 -0.0083181716286067 0)
(1.0084114999857 -0.0082324132416462 0)
(1.0090575521294 -0.0081533410520185 0)
(1.0096811290711 -0.0080299194382946 0)
(1.0103213311475 -0.0079493871546398 0)
(1.0109180641416 -0.0077818097683489 0)
(1.011560701558 -0.0077329994767318 0)
(1.0000003939928 -0.00017400948957473 0)
(1.0000211584418 -0.00051545525271248 0)
(1.0000578892873 -0.00086254318060281 0)
(1.0001168035123 -0.0012008413445567 0)
(1.0002048023626 -0.0015289736535006 0)
(1.0003412738864 -0.0018459330433443 0)
(1.0005313149269 -0.0021661514251088 0)
(1.0007056102321 -0.0024749047766591 0)
(1.0007898238052 -0.0027477670019303 0)
(1.0008765710576 -0.0030161419562282 0)
(1.0011160246769 -0.0033754750389385 0)
(1.0014582861058 -0.00393232442946 0)
(1.0017553524356 -0.0047378279345569 0)
(1.0020231024351 -0.0057522056267954 0)
(1.0023938394589 -0.0068631929831643 0)
(1.0029053134792 -0.0079379298488721 0)
(1.0034922752052 -0.0088687765364818 0)
(1.0041055985154 -0.0095957985759449 0)
(1.0047431692395 -0.010104302395625 0)
(1.0054104459005 -0.010419912753405 0)
(1.0060890028167 -0.010577858130443 0)
(1.0067707573344 -0.010630645808499 0)
(1.0074423634661 -0.010603699915145 0)
(1.0081159522269 -0.010541974811681 0)
(1.0087754008741 -0.01043553990174 0)
(1.0094455619315 -0.010340513790604 0)
(1.0100866047276 -0.010188049110317 0)
(1.0107597008614 -0.01009404085052 0)
(1.011371657304 -0.0098845464213038 0)
(1.0120624403881 -0.0098328358800416 0)
(1.0000003999012 -0.00021103659347887 0)
(1.0000221756582 -0.00062492759024041 0)
(1.0000600208102 -0.0010446363231904 0)
(1.0001218904552 -0.0014566416362485 0)
(1.0002134466952 -0.0018543330830189 0)
(1.0003559843558 -0.0022398617559379 0)
(1.0005621773723 -0.0026285837678714 0)
(1.0007500552165 -0.0030022310984238 0)
(1.0008325852882 -0.0033344648761365 0)
(1.0009216366998 -0.0036601784914531 0)
(1.0011830338882 -0.0040910176835695 0)
(1.0015515022075 -0.0047603580912953 0)
(1.0018653255008 -0.0057393177275541 0)
(1.002148059976 -0.0069848077964908 0)
(1.0025396463235 -0.0083562899211026 0)
(1.0030741357727 -0.0096802390981959 0)
(1.003681636047 -0.010814075112364 0)
(1.0043147759355 -0.011680524252283 0)
(1.0049728813902 -0.012266146026832 0)
(1.0056623973069 -0.012611445640319 0)
(1.0063629188367 -0.012768412998631 0)
(1.007068959861 -0.012807885712767 0)
(1.0077642203487 -0.012761975878826 0)
(1.0084659208515 -0.012686030652866 0)
(1.0091504279708 -0.012563146650828 0)
(1.0098538567645 -0.012461711502598 0)
(1.0105197969059 -0.012290609086154 0)
(1.0112347330111 -0.012196425247213 0)
(1.0118676999025 -0.01195487609006 0)
(1.0126163956299 -0.011914595473008 0)
(1.0000004318702 -0.00024764405012861 0)
(1.000023310682 -0.00073352186752519 0)
(1.0000627031018 -0.0012245027910347 0)
(1.0001284390324 -0.0017093505242202 0)
(1.0002242743274 -0.0021764634429951 0)
(1.0003726096665 -0.0026302395900783 0)
(1.0005931149894 -0.0030879768149292 0)
(1.0007916458311 -0.0035273935964221 0)
(1.0008704137853 -0.0039179128397093 0)
(1.0009577633357 -0.0042997082194962 0)
(1.0012326367028 -0.0048036415198354 0)
(1.0016192414851 -0.0055862084201753 0)
(1.001944274603 -0.006728972921202 0)
(1.0022330109405 -0.0081794105100968 0)
(1.00262865993 -0.0097732800508381 0)
(1.0031634522405 -0.011309913414088 0)
(1.0037670164992 -0.012625610514161 0)
(1.0043982507887 -0.013632451294836 0)
(1.0050621188919 -0.014315684618775 0)
(1.0057684795507 -0.014722410237106 0)
(1.0064944040536 -0.014911501716975 0)
(1.007235308204 -0.014965576218236 0)
(1.0079692587548 -0.014919975981218 0)
(1.0087170400119 -0.01484158597721 0)
(1.0094447968156 -0.014707342988515 0)
(1.0102001551128 -0.014602312338451 0)
(1.0109072780599 -0.014412158940676 0)
(1.0116811755105 -0.01431990732857 0)
(1.012347966178 -0.014044857060108 0)
(1.0131715870883 -0.014021750422292 0)
(1.0000004124356 -0.00028385060435506 0)
(1.000024437422 -0.00084055427571294 0)
(1.0000648835623 -0.0014018198045529 0)
(1.0001336549724 -0.0019588782829479 0)
(1.0002327672971 -0.0024939847330732 0)
(1.0003849481012 -0.0030172270917837 0)
(1.0006179985446 -0.0035449987943518 0)
(1.0008278161796 -0.0040475544943591 0)
(1.0009077582673 -0.004493594300245 0)
(1.0010016979168 -0.0049334107140582 0)
(1.0012971176663 -0.0055140201477679 0)
(1.0017049109874 -0.006405643903909 0)
(1.0020436637169 -0.0076941550693702 0)
(1.0023458616948 -0.0093208504056576 0)
(1.0027600904425 -0.011108334080428 0)
(1.0033162802774 -0.012839209708958 0)
(1.0039411886511 -0.01433316854388 0)
(1.0045950470799 -0.015489765795717 0)
(1.0052823677427 -0.01628764672356 0)
(1.0060128222636 -0.016775313062843 0)
(1.006760684241 -0.017014459836351 0)
(1.0075246980857 -0.017098164271514 0)
(1.0082802952832 -0.017064229244212 0)
(1.009055700822 -0.016992623109011 0)
(1.0098086805971 -0.016853567744824 0)
(1.010601251005 -0.016751549599411 0)
(1.0113371094039 -0.016546723798376 0)
(1.0121627065221 -0.016463152790319 0)
(1.0128568387116 -0.016157686660325 0)
(1.0137558543924 -0.016160385113193 0)
(1.0000004151491 -0.00031922723108813 0)
(1.000025340264 -0.00094523270693385 0)
(1.0000665191645 -0.0015754666304102 0)
(1.0001382951525 -0.0022026729079242 0)
(1.0002407974551 -0.002804879878792 0)
(1.0003964783708 -0.0033964166421517 0)
(1.0006410235067 -0.0039920637021187 0)
(1.0008611882548 -0.0045574458992929 0)
(1.0009412622507 -0.0050608800091297 0)
(1.0010376392473 -0.0055596448238795 0)
(1.0013455123487 -0.0062159354544965 0)
(1.0017677900356 -0.007216914611736 0)
(1.0021199106882 -0.0086572153505046 0)
(1.0024402276967 -0.010473465917966 0)
(1.0028787395504 -0.012470923418659 0)
(1.0034599083417 -0.014406819452201 0)
(1.0041043728793 -0.01607680372037 0)
(1.0047716158523 -0.017366430493321 0)
(1.005467541166 -0.018252225058418 0)
(1.0062064111433 -0.01879207091439 0)
(1.0069636783638 -0.019057312102663 0)
(1.0077433256875 -0.019156339194413 0)
(1.0085180404142 -0.019129714303132 0)
(1.0093228462261 -0.019070019172943 0)
(1.0101054961467 -0.018936451339111 0)
(1.0109417850561 -0.01885250160829 0)
(1.0117130711427 -0.018647480581933 0)
(1.0125979986995 -0.018590034049639 0)
(1.013326304031 -0.018266308314176 0)
(1.0143090476495 -0.018312612300568 0)
(1.0000004411447 -0.00035354832396526 0)
(1.0000260645323 -0.0010465363999099 0)
(1.0000677178399 -0.0017441151554724 0)
(1.0001419757284 -0.002438624241773 0)
(1.0002460193254 -0.0031069559107809 0)
(1.0004035969519 -0.0037652576018884 0)
(1.0006562884755 -0.0044284825948745 0)
(1.0008834301382 -0.0050581421261559 0)
(1.0009646342176 -0.0056173119787181 0)
(1.0010651004529 -0.0061696508388845 0)
(1.0013827710077 -0.0068988912353194 0)
(1.0018155546835 -0.0080128962001072 0)
(1.002178709636 -0.0096086893918975 0)
(1.002512531381 -0.011605249562834 0)
(1.0029637458662 -0.013782525115899 0)
(1.0035516450109 -0.01587815470824 0)
(1.0041943003219 -0.017680080513866 0)
(1.0048544908879 -0.019076097079429 0)
(1.0055432242435 -0.020048192795767 0)
(1.006281807201 -0.02066137590676 0)
(1.007047244879 -0.020987415285943 0)
(1.0078471879475 -0.02114035827429 0)
(1.0086493763709 -0.021154934461818 0)
(1.0094934989538 -0.021133824392378 0)
(1.0103156067485 -0.021023457773305 0)
(1.0112048326731 -0.020970438299242 0)
(1.0120191943402 -0.020771872611236 0)
(1.0129709706092 -0.020748436084622 0)
(1.0137390250111 -0.020409340866175 0)
(1.0148137947142 -0.020509569661804 0)
(1.000000442683 -0.0003865477584447 0)
(1.0000265003471 -0.0011437855368449 0)
(1.000068066113 -0.0019060380011667 0)
(1.0001439821669 -0.0026651796604463 0)
(1.0002480276723 -0.0033977613294754 0)
(1.0004059473729 -0.0041206865926308 0)
(1.0006640121894 -0.0048492587278977 0)
(1.0008958769509 -0.0055409860958089 0)
(1.0009781964089 -0.0061540002876493 0)
(1.0010829002104 -0.0067591268284202 0)
(1.0014096131841 -0.007560777935865 0)
(1.0018509036139 -0.0087849382845726 0)
(1.0022203169776 -0.010528825404699 0)
(1.0025603815868 -0.012693438987647 0)
(1.0030181006609 -0.015035854452312 0)
(1.0036124949825 -0.017278730767853 0)
(1.0042623987661 -0.019206313616231 0)
(1.0049327603437 -0.020709827257049 0)
(1.00563416986 -0.02177505518611 0)
(1.0063883203975 -0.022471663818502 0)
(1.0071698438575 -0.022868930234726 0)
(1.0079889803008 -0.023085467078923 0)
(1.0088102114288 -0.023148819669825 0)
(1.0096802381797 -0.02317329170732 0)
(1.010526495849 -0.023091823974001 0)
(1.0114535266276 -0.023077102902818 0)
(1.0122978247485 -0.022891453798515 0)
(1.0133059399071 -0.022912161796517 0)
(1.0141062677419 -0.022565528618585 0)
(1.0152689773596 -0.022733042254113 0)
(1.0000004303402 -0.00041779701230226 0)
(1.0000265379776 -0.0012360635843271 0)
(1.0000675424974 -0.002059595302312 0)
(1.0001441894047 -0.0028796872242707 0)
(1.0002471199116 -0.0036734538147633 0)
(1.0004038015629 -0.0044587835368527 0)
(1.0006646211629 -0.0052498819993383 0)
(1.000898804234 -0.0060007156287622 0)
(1.0009808805332 -0.0066673160126374 0)
(1.0010881087739 -0.0073271189653579 0)
(1.0014201421443 -0.0082003642535968 0)
(1.0018644587681 -0.0095274929720307 0)
(1.0022349367096 -0.011407473137231 0)
(1.0025776211841 -0.013729176530872 0)
(1.0030390713532 -0.016232083054997 0)
(1.0036375377438 -0.018624039595412 0)
(1.0042934417939 -0.02068088819519 0)
(1.0049737898648 -0.02229205295299 0)
(1.0056871467262 -0.023444778300712 0)
(1.0064537749991 -0.024215210947312 0)
(1.0072460641232 -0.024673493653856 0)
(1.0080771699849 -0.024947039648525 0)
(1.0089096569508 -0.025057699851121 0)
(1.0097974765883 -0.025132811741409 0)
(1.0106608337522 -0.025089497052249 0)
(1.0116193169269 -0.025127116507897 0)
(1.0124894317187 -0.024968811559929 0)
(1.0135502710241 -0.025051614085042 0)
(1.0143824556487 -0.024712219494221 0)
(1.0156321385705 -0.024966478475788 0)
(1.0000004292873 -0.00044687265245436 0)
(1.0000261813877 -0.0013226121833576 0)
(1.0000662099878 -0.0022031166222677 0)
(1.0001424913336 -0.0030799627886102 0)
(1.0002428503962 -0.0039318179911776 0)
(1.0003958778955 -0.0047766632046267 0)
(1.0006551569795 -0.005626936780177 0)
(1.0008875349528 -0.0064341861930967 0)
(1.0009675245463 -0.0071534537497263 0)
(1.0010759350175 -0.0078677453109845 0)
(1.0014100724273 -0.0088105894517093 0)
(1.0018536780649 -0.010234782489439 0)
(1.0022233924815 -0.012240971051645 0)
(1.0025679879199 -0.01470816442396 0)
(1.0030307097787 -0.017361148255117 0)
(1.0036273294301 -0.019894486567874 0)
(1.0042801224463 -0.022075422021572 0)
(1.0049589726054 -0.023790920232805 0)
(1.0056719383528 -0.025028931043255 0)
(1.0064391082556 -0.025872262294035 0)
(1.0072324708673 -0.026392036697213 0)
(1.0080679714227 -0.026725336333327 0)
(1.0089067227589 -0.026888325822883 0)
(1.0098082972965 -0.027021900592776 0)
(1.0106863480012 -0.027026076049645 0)
(1.0116734409739 -0.027128148377099 0)
(1.0125682189671 -0.027009191514209 0)
(1.0136795699536 -0.027169194144152 0)
(1.0145442339684 -0.026850296631179 0)
(1.0158799696292 -0.02720935766432 0)
(1.0000004467422 -0.00047353743503218 0)
(1.00002540373 -0.0014025944696579 0)
(1.0000637635929 -0.0023353090901375 0)
(1.0001384861179 -0.0032644718263724 0)
(1.0002346516568 -0.0041707347561364 0)
(1.0003815358217 -0.0050712268616002 0)
(1.0006356096764 -0.005976415798804 0)
(1.0008631571425 -0.0068364246180222 0)
(1.0009399860442 -0.0076061974331483 0)
(1.001048293354 -0.008373871004873 0)
(1.0013807060847 -0.0093843672848296 0)
(1.0018182226947 -0.01090079569668 0)
(1.0021822214608 -0.013024879457766 0)
(1.0025239477584 -0.015626892648793 0)
(1.0029819887554 -0.018418876774009 0)
(1.0035691396522 -0.021083791061875 0)
(1.0042101991671 -0.02338100775189 0)
(1.0048781814499 -0.025195210855654 0)
(1.0055812212908 -0.026514837908185 0)
(1.0063391426413 -0.027429542911222 0)
(1.0071248816048 -0.028011605270322 0)
(1.0079563496679 -0.028407748006681 0)
(1.0087950492767 -0.028628789885328 0)
(1.0097033926066 -0.028828541551389 0)
(1.0105920816923 -0.028890012323532 0)
(1.0116013741943 -0.029067738305568 0)
(1.0125185734703 -0.029001032293147 0)
(1.0136743760522 -0.029251912280309 0)
(1.0145711347224 -0.028967791441845 0)
(1.0159897173492 -0.029450076277558 0)
(1.0000004723418 -0.00049762291288108 0)
(1.000024184879 -0.0014751315283669 0)
(1.0000601180575 -0.002455052386759 0)
(1.0001321920332 -0.0034315438318115 0)
(1.0002226485394 -0.0043875670355996 0)
(1.0003610692 -0.005339230879915 0)
(1.0006065856395 -0.0062949526554664 0)
(1.0008261307885 -0.0072039379050443 0)
(1.000897620594 -0.0080216829592532 0)
(1.0010028785787 -0.0088411558719532 0)
(1.0013282386796 -0.0099168900543723 0)
(1.0017533319991 -0.01152018195494 0)
(1.00210646936 -0.013753104318782 0)
(1.002440994932 -0.016478246356081 0)
(1.0028889237435 -0.019396781522618 0)
(1.0034590638262 -0.022181685084851 0)
(1.0040795588477 -0.024585499092758 0)
(1.0047269744144 -0.026491342508007 0)
(1.0054103549784 -0.027888532927062 0)
(1.006148793464 -0.02887378449974 0)
(1.0069180174969 -0.029520426492972 0)
(1.0077359599112 -0.029983999697049 0)
(1.0085682969361 -0.030270507035493 0)
(1.0094739253921 -0.030544136062544 0)
(1.0103707295079 -0.030674549338369 0)
(1.0113901010436 -0.0309363976871 0)
(1.0123341676857 -0.030938420450113 0)
(1.0135142593371 -0.031287419802067 0)
(1.0144628758106 -0.031062073280953 0)
(1.0159410607698 -0.031676621345455 0)
(1.0000004920878 -0.00051895538340808 0)
(1.0000225572411 -0.0015396479205686 0)
(1.000055435573 -0.00256152615681 0)
(1.0001236727653 -0.0035799851262353 0)
(1.0002067445929 -0.0045805417667265 0)
(1.0003343125039 -0.0055785115530285 0)
(1.0005677084408 -0.0065802860410477 0)
(1.0007758792014 -0.0075342583067199 0)
(1.0008400357618 -0.0083968065666293 0)
(1.0009399141117 -0.0092654970142278 0)
(1.0012536385982 -0.010402893502094 0)
(1.0016601575403 -0.012086430053084 0)
(1.0019962424138 -0.014417889353318 0)
(1.00231718852 -0.017253495713943 0)
(1.0027476427831 -0.020285532716905 0)
(1.0032921518574 -0.023178476682636 0)
(1.0038830901499 -0.025679000997335 0)
(1.0045005872876 -0.027669584363972 0)
(1.0051554028826 -0.029140862580105 0)
(1.0058652898582 -0.030196691880294 0)
(1.0066099461444 -0.030910919968503 0)
(1.0074059678975 -0.031446953248188 0)
(1.0082244992564 -0.031806056280755 0)
(1.009118984865 -0.032161231546759 0)
(1.01001688668 -0.032370476021017 0)
(1.011037457765 -0.032725660393242 0)
(1.0120030291611 -0.032810215233796 0)
(1.0131977537376 -0.033266432746198 0)
(1.0141962490748 -0.033120168879501 0)
(1.0157250434599 -0.033877606210557 0)
(1.0000005047847 -0.00053741677125351 0)
(1.0000204932281 -0.0015957817673754 0)
(1.0000497726308 -0.0026541711093892 0)
(1.0001130969932 -0.0037090464481571 0)
(1.0001873555121 -0.0047486510074338 0)
(1.0003018874028 -0.0057878604005619 0)
(1.0005194880086 -0.0068310158470248 0)
(1.000712846207 -0.0078256953230034 0)
(1.0007679039428 -0.0087292594967353 0)
(1.0008602435708 -0.0096434522193629 0)
(1.0011577805658 -0.010837696626833 0)
(1.0015397149164 -0.012594095284836 0)
(1.0018525068755 -0.015013322333038 0)
(1.0021527886792 -0.017946016123897 0)
(1.0025575084536 -0.021077423853598 0)
(1.0030674906161 -0.024065728841232 0)
(1.0036206401526 -0.026653244572032 0)
(1.004200095147 -0.028722813520293 0)
(1.0048187295276 -0.030266099232058 0)
(1.0054917668752 -0.031393368599683 0)
(1.0062036666215 -0.032178308287129 0)
(1.0069689630245 -0.032791011605395 0)
(1.0077646694908 -0.033228809182692 0)
(1.0086388573829 -0.033672019904572 0)
(1.0095283850432 -0.033968888946601 0)
(1.0105414788653 -0.034425991758201 0)
(1.0115185629357 -0.034605870645743 0)
(1.0127210869656 -0.03517815570643 0)
(1.0137586838393 -0.035129692250014 0)
(1.0153316346795 -0.036039114108841 0)
(1.0000005214134 -0.00055295539944866 0)
(1.0000180271684 -0.0016432964121778 0)
(1.0000430350057 -0.0027326450613949 0)
(1.0001002645451 -0.0038180668831429 0)
(1.0001644276994 -0.0048905797861231 0)
(1.00026423367 -0.0059657264077759 0)
(1.0004629753856 -0.0070460123496569 0)
(1.0006385901975 -0.0080776676378645 0)
(1.0006831862204 -0.0090186925608126 0)
(1.0007657821493 -0.0099743149516636 0)
(1.0010419508125 -0.011219599909559 0)
(1.0013927943729 -0.013040403404736 0)
(1.0016760807104 -0.015536220015537 0)
(1.0019486873817 -0.018553110944174 0)
(1.0023189238656 -0.021770418087097 0)
(1.0027843344323 -0.024841575553359 0)
(1.0032900328725 -0.027505393850656 0)
(1.0038219619831 -0.029646218390724 0)
(1.0043960051969 -0.031256785253693 0)
(1.0050234148608 -0.032453193449926 0)
(1.0056940491442 -0.033309361962748 0)
(1.0064197233366 -0.034000284443415 0)
(1.0071833394279 -0.034521104981302 0)
(1.0080282424618 -0.035057333891489 0)
(1.0088995951172 -0.03544970010771 0)
(1.009897321635 -0.036016079424169 0)
(1.0108746677842 -0.036303638772167 0)
(1.0120798867951 -0.037000312915137 0)
(1.0131430662397 -0.037066421092782 0)
(1.0147531324203 -0.038134169278587 0)
(1.0000005493273 -0.00056559773466102 0)
(1.0000152511943 -0.0016821258006518 0)
(1.0000354687462 -0.0027970106866919 0)
(1.0000855797214 -0.003907375165954 0)
(1.0001384043493 -0.0050065442551303 0)
(1.000221539081 -0.0061113708362473 0)
(1.0003977471335 -0.0072232272572397 0)
(1.0005520994695 -0.008287197290976 0)
(1.0005850464127 -0.0092616520624061 0)
(1.0006566100565 -0.010254429208796 0)
(1.0009067108482 -0.011544861858859 0)
(1.0012191502254 -0.013421522207484 0)
(1.0014652189451 -0.015982962033842 0)
(1.001702435953 -0.01907252749295 0)
(1.0020301442826 -0.02236524217952 0)
(1.0024425709868 -0.025511190772795 0)
(1.0028924725686 -0.028245066466089 0)
(1.0033681409757 -0.030453025211338 0)
(1.0038893936802 -0.032128016211366 0)
(1.004462528233 -0.033391331531963 0)
(1.005083849558 -0.034317984254182 0)
(1.0057607928612 -0.035086002582758 0)
(1.0064836634788 -0.035690410933345 0)
(1.007289233315 -0.0363207899868 0)
(1.0081329322587 -0.036811519568207 0)
(1.0091050428935 -0.037490827062068 0)
(1.0100728612617 -0.037890781503742 0)
(1.0112695865351 -0.03872088085622 0)
(1.0123517536702 -0.038906846684028 0)
(1.0139865784338 -0.04014729291192 0)
(1.0000005794623 -0.00057539453505883 0)
(1.0000121380769 -0.001712335634102 0)
(1.0000270664451 -0.0028474511338853 0)
(1.0000692199871 -0.0039776543244125 0)
(1.0001103579565 -0.0050981336886249 0)
(1.0001760678636 -0.0062267716351187 0)
(1.0003265810865 -0.0073644095972496 0)
(1.0004558763678 -0.0084557719326655 0)
(1.0004750582496 -0.0094584266787685 0)
(1.0005329291005 -0.010480410134081 0)
(1.0007511096665 -0.011804550830664 0)
(1.0010166345767 -0.01372341886666 0)
(1.0012151742679 -0.016336312820461 0)
(1.001405017504 -0.019485605047162 0)
(1.0016780250045 -0.022843465958238 0)
(1.0020278250832 -0.026058199361234 0)
(1.0024151331285 -0.028860030625933 0)
(1.002830647549 -0.031136736769367 0)
(1.0032952232819 -0.032880195453196 0)
(1.003811627434 -0.034215392080232 0)
(1.0043792575201 -0.035219343967003 0)
(1.0050036296395 -0.036069974061041 0)
(1.0056787737914 -0.036766076051548 0)
(1.0064393806173 -0.037495827983317 0)
(1.0072450809005 -0.038095284087579 0)
(1.0081846634405 -0.038893445583858 0)
(1.0091330120947 -0.039414798615451 0)
(1.0103081335748 -0.040390480506435 0)
(1.0114051524 -0.040701221649554 0)
(1.013038127194 -0.042131796201152 0)
(1.0000006213404 -0.00058243116371226 0)
(1.000008761844 -0.0017342141431205 0)
(1.0000175929222 -0.0028840751284908 0)
(1.000050701348 -0.0040292427377533 0)
(1.000079661722 -0.0051659137622239 0)
(1.0001274500745 -0.0063121843848828 0)
(1.0002506501978 -0.0074707057007473 0)
(1.0003539550949 -0.008587685799225 0)
(1.0003607133289 -0.0096170291189255 0)
(1.0004048837621 -0.010661769546113 0)
(1.0005851835243 -0.012005955266622 0)
(1.0007919375399 -0.013948251965733 0)
(1.0009278830467 -0.016592775686827 0)
(1.0010542657704 -0.019784049677564 0)
(1.001257706003 -0.023193337003264 0)
(1.0015346504989 -0.026466297508452 0)
(1.0018530959288 -0.029328632814044 0)
(1.0022075443095 -0.031666700099643 0)
(1.00261293554 -0.033473400851359 0)
(1.0030749186811 -0.034873630833441 0)
(1.0035841837418 -0.035952034436063 0)
(1.0041589229597 -0.036880221778596 0)
(1.0047776066296 -0.03767211761041 0)
(1.0054966893412 -0.038497851562639 0)
(1.0062515415436 -0.039219237940994 0)
(1.0071627018869 -0.04013618883898 0)
(1.0080747055821 -0.040794589447788 0)
(1.0092371210662 -0.041920948317216 0)
(1.0103205388197 -0.042379240555711 0)
(1.0119608976473 -0.043979446121706 0)
(1.0000006364769 -0.00058684544493949 0)
(1.0000052229713 -0.0017480565925825 0)
(1.0000075006614 -0.0029075564379459 0)
(1.0000306480685 -0.0040633898196311 0)
(1.0000470346737 -0.005210949228874 0)
(1.0000756529957 -0.0063672322941692 0)
(1.0001682460701 -0.0075405472063634 0)
(1.000243103803 -0.0086814430058088 0)
(1.0002382765293 -0.0097357894396024 0)
(1.0002703455829 -0.01079536180863 0)
(1.0004105188184 -0.012144981484305 0)
(1.0005501163002 -0.014094633941016 0)
(1.0006100114323 -0.016759402578832 0)
(1.0006586822395 -0.01998889641209 0)
(1.000784083002 -0.023453197523672 0)
(1.0009900281523 -0.026790782329006 0)
(1.0012504695881 -0.029719969716269 0)
(1.001558640463 -0.032120346250258 0)
(1.0019180514705 -0.03398772328764 0)
(1.0023344775996 -0.0354438956768 0)
(1.0027883737387 -0.036584700365785 0)
(1.0033098858555 -0.037576789811712 0)
(1.0038670097361 -0.038447232579561 0)
(1.0045304195886 -0.039357623451305 0)
(1.0052296246214 -0.04018060796386 0)
(1.006090183096 -0.041210929252537 0)
(1.0069636474589 -0.041985096095538 0)
(1.0080882524056 -0.043256634098472 0)
(1.0091581553287 -0.043845356880965 0)
(1.0108035590695 -0.045639546648297 0)
(1.0000005876025 -0.00058900399738108 0)
(1.0000015879331 -0.0017544282303545 0)
(0.99999723506804 -0.0029186111010608 0)
(1.0000093796947 -0.0040816135582089 0)
(1.0000130079603 -0.0052350417811246 0)
(1.0000228629198 -0.0063940838958199 0)
(1.000083832826 -0.0075774125813238 0)
(1.000129396528 -0.0087418204986138 0)
(1.0001127379102 -0.0098183981075666 0)
(1.0001280907918 -0.010878004285893 0)
(1.0002162332018 -0.012203531306929 0)
(1.0002737611481 -0.014125815935763 0)
(1.0002460595441 -0.016787585094869 0)
(1.0002131077988 -0.02005383383509 0)
(1.0002674182708 -0.0235909455916 0)
(1.0004203143722 -0.027018588543703 0)
(1.0006502796268 -0.030038245546929 0)
(1.0009411345261 -0.032517161022583 0)
(1.0012833876637 -0.034454905003176 0)
(1.0016736711603 -0.035972582707821 0)
(1.0020893707446 -0.037179569915361 0)
(1.0025606950042 -0.038245315429753 0)
(1.0030606138499 -0.03920191185284 0)
(1.0036600328065 -0.040216140921865 0)
(1.0042974628543 -0.041157049492458 0)
(1.005099317673 -0.042320888136552 0)
(1.0059169693354 -0.043242740184131 0)
(1.0070059879337 -0.044677683310317 0)
(1.008035652185 -0.045424910920245 0)
(1.0096778625708 -0.047434672029958 0)
(1.0000003149266 -0.00058941443983737 0)
(0.99999838519457 -0.001754979876783 0)
(0.99998753545262 -0.0029191200363933 0)
(0.99998718024318 -0.0040860691636132 0)
(0.99997756741219 -0.0052410774208748 0)
(0.99996865664777 -0.0063962384905441 0)
(0.9999971488721 -0.0075853458838367 0)
(1.0000128845305 -0.0087739071432214 0)
(0.99998495067012 -0.0098726499029751 0)
(0.9999852305669 -0.01092568239935 0)
(1.0000251268486 -0.012212973451761 0)
(1.000006503047 -0.014088953481892 0)
(0.99989639163539 -0.016731283275806 0)
(0.99978551133668 -0.020029269729414 0)
(0.99977577421467 -0.023645445100981 0)
(0.99988352450425 -0.027172067050359 0)
(1.0000916739889 -0.03027941863247 0)
(1.00037125082 -0.032817817401294 0)
(1.0006982222316 -0.034797197838232 0)
(1.0010560955998 -0.036341537949173 0)
(1.0014240765401 -0.037581028070214 0)
(1.0018298842492 -0.038683688443065 0)
(1.0022536506188 -0.039702088839474 0)
(1.002770109011 -0.040784721561919 0)
(1.0033240402486 -0.041834097282383 0)
(1.0040365981036 -0.043100241588189 0)
(1.0047966701826 -0.044164065522179 0)
(1.0057862933337 -0.045768939862117 0)
(1.0068546431515 -0.046648218246389 0)
(1.0083980451327 -0.049043323705955 0)
(0.99999978137619 -0.00058915882645992 0)
(0.99999470221612 -0.001753149133375 0)
(0.99997873014234 -0.0029154649408517 0)
(0.99996470167178 -0.0040865373115968 0)
(0.99994050637305 -0.0052437736757367 0)
(0.99991486650743 -0.0063951730449619 0)
(0.99991190134064 -0.0075900156220419 0)
(0.99989169451718 -0.0088010371593186 0)
(0.99983932575391 -0.0099146956730096 0)
(0.99981595021931 -0.010951836121413 0)
(0.9998208924258 -0.012203537179217 0)
(0.99976335477484 -0.014064187002124 0)
(0.99961540644146 -0.016748338639487 0)
(0.99946102252984 -0.020151965306061 0)
(0.9993942432326 -0.023908141228278 0)
(0.99944114333061 -0.027564076653461 0)
(0.99958439865915 -0.030768327964704 0)
(0.99979572121342 -0.033358901211871 0)
(1.0000546036404 -0.035354436536562 0)