/*--------------------------------*- C++ -*----------------------------------*\
| =========                 |                                                 |
| \\      /  F ield         | OpenFOAM: The Open Source CFD Toolbox           |
|  \\    /   O peration     | Version:  2112                                  |
|   \\  /    A nd           | Website:  www.openfoam.com                      |
|    \\/     M anipulation  |                                                 |
\*---------------------------------------------------------------------------*/
FoamFile
{
    version     2.0;
    format      ascii;
    arch        "LSB;label=32;scalar=64";
    class       volScalarField;
    location    "14.1";
    object      p;
}
// * * * * * * * * * * * * * * * * * * * * * * * * * * * * * * * * * * * * * //

dimensions      [0 2 -2 0 0 0 0];

internalField   nonuniform List<scalar> 
22000
(
0.045211300447105
0.045189253158948
0.045143798560619
0.045073760061879
0.044978599988107
0.044858321375941
0.044713160965
0.044543356871724
0.04434906929947
0.044130406297676
0.0438874670568
0.043620369773047
0.043329258297781
0.043014306731421
0.042675709708223
0.042313688634588
0.041928477574661
0.041520346506958
0.041089572527455
0.040636490666212
0.040161423566099
0.039664791131334
0.039146948853414
0.038608435075543
0.038049603893631
0.037471178978115
0.036873424173613
0.036257393696624
0.035623039088967
0.034972031397238
0.045623398450176
0.045600306825219
0.045553679287631
0.045482425512902
0.04538595424073
0.04526419508724
0.045117334622623
0.044945583478867
0.044749085698761
0.044527935277752
0.044282213074153
0.044012015223039
0.043717459913043
0.043398696712353
0.043055893845069
0.042689250722286
0.042298974631048
0.041885317215656
0.041448525448976
0.040988922156085
0.040506791343026
0.040002554180912
0.039476510483485
0.038929226927254
0.038360963447929
0.03777252244441
0.0371639792376
0.036536555202026
0.035889742975553
0.03522546512556
0.046377067416059
0.046353414211312
0.046305726826383
0.046233001392775
0.046134693893288
0.04601072702334
0.045861250923951
0.045686435054921
0.045486386718484
0.045261166917588
0.045010821547894
0.044735409768857
0.04443500776639
0.044109723351098
0.043759677027825
0.043385025589679
0.042985923791716
0.042562584730614
0.042115195872142
0.041644053002951
0.041149366596364
0.040631558259382
0.040090824845963
0.039527789429294
0.038942542816919
0.038336058703132
0.037708081874457
0.037060232527532
0.036391186427682
0.035703533837665
0.047419876793728
0.047395730080634
0.047347047349922
0.047272819591964
0.04717250163307
0.047046006004748
0.046893456937139
0.046714985572813
0.046510653284449
0.046280472207774
0.04602443474399
0.045742544283904
0.04543481441218
0.045101290513536
0.044742021480345
0.044357099010526
0.043946597648941
0.043510669673046
0.04304941102267
0.042563072658607
0.042051752819597
0.041515866046667
0.040955453088983
0.040371209076096
0.039762971633868
0.039131944011716
0.038477375591599
0.037801418861472
0.037101530633129
0.036381188810962
0.048705500765248
0.048680895337356
0.048631275958696
0.048555615001587
0.048453349192368
0.048324368598783
0.048168762610749
0.047986614022937
0.047777924541629
0.047542640465872
0.047280680661125
0.046991971195881
0.046676439013591
0.046334042649602
0.045964731505145
0.045568505367304
0.045145326203383
0.044695257922098
0.044218267264342
0.04371453550436
0.043184002750556
0.042627060592257
0.042043532834797
0.041434190688888
0.040798527019368
0.040138021165704
0.03945126702406
0.038741085920024
0.038003368513487
0.03724274727551
0.050192400072768
0.050167435743031
0.050117077638978
0.050040282137889
0.049936463090794
0.049805477030222
0.049647363794612
0.049462141645964
0.049249735094619
0.049010005588029
0.048742776745381
0.048447873644968
0.048125109771421
0.047774328994215
0.04739534954175
0.04698804824424
0.046552237588342
0.046087860356506
0.045594710898268
0.045072869426597
0.044522065779727
0.043942644807249
0.043334146250561
0.042697412756762
0.042031498088221
0.041338194372489
0.04061528353131
0.039866375454472
0.039085455377024
0.038278520562891
0.051842851155365
0.051817712079884
0.051766981827849
0.051689605501152
0.051584970703291
0.051452889795419
0.051293337956273
0.051106251729387
0.050891459814983
0.050648718858192
0.050377734624611
0.0500782063567
0.049749805620389
0.049392231554704
0.049005136760967
0.048588240605641
0.048141165255486
0.047663694776624
0.047155402763351
0.046616230560987
0.046045639258135
0.045443894605058
0.044810178488269
0.044145388660126
0.043448038332687
0.042720251286008
0.041958836271794
0.041168279294267
0.040340321164832
0.039482467417232
0.053622145520073
0.053597096099205
0.053546522082885
0.05346936071969
0.053364969363696
0.053233106787103
0.053073670000784
0.05288649771257
0.052671304631707
0.052427722713721
0.052155317148416
0.051853636143939
0.051522180230317
0.051160472566378
0.050767964008018
0.050344179490243
0.049888507059937
0.049400530349475
0.04887954937904
0.048325322490819
0.047736977621043
0.04711465993349
0.046457112258332
0.045765257587355
0.045036960772078
0.044274675209715
0.043474072326456
0.042640567604551
0.041763327532868
0.040851437941869
0.055498104396865
0.055473478914659
0.055423736673755
0.055347805960441
0.055245007191452
0.055115036877984
0.054957703178713
0.054772733769326
0.054559713395925
0.054318130874235
0.054047389201003
0.053746861187206
0.053415847858045
0.05305366535343
0.052659526596794
0.052232724239783
0.051772367144432
0.051277794090892
0.05074797581255
0.050182438255389
0.049579907121645
0.04894035646527
0.048262003370571
0.047545752077599
0.046788706093827
0.045993624346131
0.045154878932114
0.044278829000094
0.043351751536299
0.042384295588216
0.0574408948211
0.057417082139192
0.057368958333002
0.057295447136607
0.057195827793616
0.057069726214667
0.056916851397685
0.056736808348806
0.056529038269824
0.05629287135945
0.056027530016276
0.055732190273081
0.055405927957623
0.055047823241501
0.054656816730541
0.054231931838368
0.053771954031367
0.053275932073858
0.052742451202631
0.052170751990317
0.051559086790388
0.050907200293638
0.050212693473949
0.049476393238989
0.048694526221201
0.04787010727144
0.0469960503427
0.046079628100357
0.045103936468619
0.044081068965972
0.059422973805873
0.059400404096048
0.059354763744096
0.059284983826841
0.05919030376706
0.059070272897176
0.058924492538372
0.058752436278664
0.058553392138081
0.058326519341179
0.058070844041601
0.057785327700783
0.057468800239434
0.057120081638589
0.056737810500761
0.056320707229543
0.05586719309837
0.055375982898203
0.054845222575551
0.05427381269866
0.05365946247269
0.053001622510109
0.0522971884207
0.051546838065114
0.050745806046088
0.049897288687899
0.048992587600213
0.048039804497411
0.04701858730237
0.045942228851858
0.061419127720427
0.061398254546923
0.061356011503978
0.06129135226225
0.061203481510319
0.061091869368516
0.060956003662635
0.060795220741213
0.060608650161879
0.060395274045654
0.060153913930459
0.059883304157793
0.059582012439452
0.05924857926333
0.058881318723765
0.058478620303016
0.058038507381884
0.057559320136009
0.057038717770707
0.056475205657408
0.055865886597605
0.055209845587234
0.054503190382758
0.05374636255576
0.05293349750909
0.052067875759935
0.051139041143064
0.050155804171789
0.049094119157484
0.04796810856759
0.063406584362154
0.063387869388193
0.063349954289572
0.063291833618441
0.063212685664283
0.063111901741557
0.062988854308932
0.06284274126307
0.062672533643092
0.062477035828928
0.062254862892171
0.062004517574044
0.061724298702624
0.061412454705306
0.061066960015875
0.060685851704587
0.060266732374158
0.059807531831611
0.059305387724291
0.058758353495921
0.058162878647599
0.057517599461323
0.056817774100514
0.056063501407557
0.055247717731285
0.05437368881107
0.053429005698004
0.052423112385935
0.051327953433307
0.050158053639255
0.065365130609844
0.065349026895025
0.06531635553899
0.065266171338422
0.065197636614424
0.065110067978727
0.065002724982387
0.064874670961383
0.064724724192399
0.064551517305092
0.064353464396185
0.064128839995792
0.063875676047048
0.063591926941607
0.063275223435149
0.062923237111265
0.062533137192069
0.062102416511212
0.061627668734544
0.061106446460286
0.060534509589764
0.05990996958483
0.05922717661038
0.058485791666527
0.057677443959564
0.056805296457623
0.055854803225233
0.054835882765691
0.05371630082512
0.052510220267633
0.067277201334016
0.067264138826931
0.067237581076951
0.067196664493709
0.067140548249226
0.067068480995547
0.066979615963371
0.066872891270442
0.066746984206474
0.066600368631864
0.066431270485681
0.066237748380292
0.066017578045855
0.065768429005842
0.065487594068943
0.065172382405742
0.064819524826104
0.06442606864724
0.063988043949371
0.063502480075783
0.062964406767064
0.062371362918742
0.061716734918073
0.060999639866111
0.060210371442815
0.059351753530466
0.058407136792261
0.057386557054351
0.056253439755603
0.055020971667963
0.069127918174697
0.069118289961305
0.069098643933953
0.069068219536095
0.069026186774484
0.068971736188108
0.068903925332851
0.068821581440097
0.068723258452823
0.068607291029463
0.06847173723757
0.068314460559788
0.06813300065383
0.067924761861292
0.067686716151719
0.067415825942347
0.067108393454839
0.066761027075673
0.066369187336065
0.065929373677952
0.065435858621486
0.064885582430527
0.064270910658571
0.063590354188677
0.062832801781176
0.062000576976441
0.061074944905869
0.060065615414345
0.058931830811756
0.057684667483254
0.070905070342794
0.0708992223942
0.070887192073622
0.070868344145102
0.070841875026609
0.070806928601805
0.070762480659476
0.070707266449723
0.070639739478935
0.070558120673688
0.070460327360404
0.070344056552437
0.070206641172004
0.070045250299216
0.069856563809436
0.069637225358697
0.069383132466071
0.069090476251923
0.06875416076897
0.068370163133308
0.067931993721736
0.067435980810539
0.066873441005768
0.066242221916403
0.065529764111878
0.06473773100259
0.063845359187121
0.062861484275703
0.061741835576598
0.060493486377345
0.072599036265872
0.072597257652301
0.07259343592919
0.072587084143501
0.072577440002863
0.072563613742839
0.072544516270195
0.072518813284433
0.072484885057594
0.072440869027579
0.072384574897895
0.07231356847342
0.072225013509334
0.072115882738949
0.071982604223062
0.071821542386311
0.071628228890164
0.071398472018521
0.071126652417959
0.070808245872052
0.070436025243109
0.07000569657438
0.069507556973661
0.068938698973453
0.068285203826489
0.067547736539718
0.066703856401342
0.065760710979549
0.064671113677036
0.063437237281429
0.074202647094359
0.074205168705265
0.074210029120339
0.074216911082968
0.074225110045643
0.074233717377332
0.074241598448968
0.07424737494482
0.07424938416622
0.074245713164569
0.074234101934244
0.074212025399138
0.074176523204073
0.074124417365829
0.074051935349221
0.073955210515886
0.073829463715407
0.073670164260444
0.073471226674789
0.073227650907407
0.072931537720357
0.072577946769539
0.07215626060381
0.071662686121053
0.071082156534125
0.070413995723715
0.069634337055107
0.068748172514282
0.067705301463524
0.066502767209916
0.075711003281854
0.075717995302799
0.075731888040687
0.075752555037197
0.075779364814267
0.07581140297958
0.075847509678092
0.075886290393731
0.075926074525989
0.07596493553506
0.07600058487542
0.07603044783421
0.07605149116374
0.076060436339614
0.076053373343427
0.076026257325238
0.075974071070167
0.075891993006176
0.075773555454496
0.075613311276023
0.075402788547737
0.075136379990927
0.074802675269852
0.074396911409035
0.073903021284982
0.073318992572187
0.07261945837684
0.071807400726873
0.070828856333076
0.069674770008359
0.077121242287796
0.077132821857389
0.077155984663123
0.077190807894205
0.077236749862427
0.077292909221098
0.077358118164979
0.077430984210056
0.077509862982405
0.077592859735429
0.077677708461194
0.077761826579385
0.077842162545147
0.07791538622288
0.077977524212116
0.078024405576814
0.078050868965481
0.078051849786542
0.078020613324842
0.077951301517998
0.07783499187722
0.077665440876896
0.077430498011722
0.077124509602833
0.076730219348648
0.076244679401367
0.075640742906821
0.074920298554107
0.074024994165399
0.072938326772909
0.078432285487978
0.078448519978263
0.078481090108522
0.078530273670869
0.078595635461863
0.078676316196508
0.078771167552883
0.078878811350619
0.078997645338261
0.079125837087124
0.079261195974147
0.079401183190143
0.079542797568687
0.079682706223478
0.079816956139498
0.079941292536644
0.080050524131033
0.08013936947091
0.080200990392542
0.080229122586529
0.08021461069672
0.08015056577896
0.080024296506458
0.079829293120114
0.079546923011615
0.079173538178284
0.07867900071985
0.078066730577405
0.077271824009758
0.076276283260041
0.079644606314722
0.079665439272847
0.079707401310048
0.079770986140253
0.079855860508668
0.079961189835129
0.080085866432622
0.080228585866829
0.080387841599905
0.080561867959913
0.080748551050543
0.08094542603237
0.081149616732098
0.081357837784692
0.081566248271793
0.08177054706325
0.081965654200965
0.082146054171805
0.082305030139518
0.082435773553528
0.082529319840863
0.082577773372621
0.082568721203386
0.082494096207455
0.082335159162964
0.082086306641145
0.08171412714341
0.081222529536045
0.08053554320849
0.07965474324901
0.080760238553843
0.080785335325594
0.080836232082338
0.080913868180352
0.081018080031333
0.081147923384922
0.081302203789955
0.081479745304982
0.081679283952544
0.081899183380119
0.08213740732824
0.082391573272241
0.082658971772482
0.08293639438945
0.083220160130109
0.08350592980465
0.083788851585477
0.084063156881565
0.08432251561204
0.084559339238254
0.084765445552885
0.08493103830409
0.085045589853571
0.085096976397829
0.085070944359958
0.084953879285727
0.08472012835286
0.084356216213661
0.083783989355205
0.082991387439227
0.081783107967035
0.081812029228023
0.081870825115364
0.081961335769687
0.082083801417916
0.082237180660619
0.082419945408978
0.082631046577017
0.082869538744585
0.083133900232689
0.083422238995332
0.083732364674885
0.084061818022122
0.084407589395413
0.084766254792902
0.08513349899908
0.085504694473302
0.085873875657146
0.086235209925636
0.086580426106837
0.086902515109777
0.087189490889071
0.087433877400219
0.087617277521279
0.087734414555493
0.087755216592278
0.087681668686745
0.087457729725019
0.087063645602125
0.086296543834211
0.034344949339565
0.033745067475461
0.033132205182467
0.032507504608284
0.031871998256374
0.031226491443804
0.030571635231308
0.029908032080675
0.029236316889123
0.028557190388197
0.027871406739923
0.027179745863202
0.026482997824761
0.025781960881055
0.025077442238828
0.024370257647846
0.023661230725636
0.022951191215655
0.022240972296657
0.021531408036148
0.020823331545293
0.020117575609475
0.019414976333187
0.018716381147405
0.018022647034689
0.017334498640737
0.016652480399589
0.015977301681787
0.015309734783025
0.014650520161506
0.014000334548136
0.013359796316616
0.012729476282707
0.012109908195546
0.011501589914759
0.010904985389184
0.010320515647744
0.0097485642846675
0.0091894642484285
0.0086435166009063
0.0081109613421237
0.0075920205169909
0.0070868321428629
0.0065955503391861
0.0061181933248485
0.0056548711246703
0.0052054344480977
0.0047699878273486
0.0043480727233502
0.0039397474638684
0.03458821614842
0.033980860351564
0.03335877614531
0.032724474936168
0.032079530034042
0.03142467794048
0.030760274909332
0.030086657777103
0.029404327436048
0.028713964731735
0.028016345609906
0.027312263918032
0.026602510990489
0.025887887132548
0.025169211984424
0.024447326434769
0.023723090897144
0.02299738227737
0.022271089635218
0.021545109330808
0.020820339572052
0.020097672637723
0.019377981448253
0.018662098075651
0.017950799582182
0.017244969665794
0.016545669919588
0.015853737200081
0.015169899348297
0.014494864030142
0.01382933413752
0.013173995880559
0.012529503277816
0.011896472911634
0.011275473581704
0.010667032509092
0.010071622769366
0.0094896811066641
0.0089215791114429
0.0083676649914872
0.0078281985339201
0.0073034495611009
0.006793549135723
0.0062987175504442
0.0058189221062987
0.0053544053177368
0.0049049001393198
0.0044708645506625
0.0040517337872859
0.0036488631926497
0.035045175919427
0.034416560038984
0.033769298288444
0.033108998278314
0.032438601415693
0.031758875547341
0.031069701407628
0.030370989773892
0.029663073867962
0.028946682034682
0.028222704109818
0.027492013790105
0.026755439915456
0.026013807045599
0.02526796423789
0.024518790511287
0.023767191845289
0.023014095904499
0.022260444681137
0.021507187454848
0.020755275763718
0.020005660809312
0.01925929350446
0.018517130488541
0.017780144255652
0.017049287686436
0.016325433747851
0.015609451374676
0.014902180276027
0.014204427935366
0.013516971167929
0.012840556995948
0.012175891525964
0.011523640139477
0.010884413649422
0.010258782285207
0.0096472513718811
0.0090502966234073
0.008468308366874
0.0079016749136734
0.0073506541890736
0.0068155697555588
0.0062965132090787
0.0057938020840931
0.0053072881781105
0.004837434115589
0.0043837153432856
0.0039471945751509
0.0035269761961527
0.0031266820796726
0.035691523352507
0.035028885401302
0.034342080333291
0.033641648666035
0.032932580927061
0.032215585350245
0.031489752342174
0.030754333242366
0.030009414457324
0.029255795532872
0.028494523322847
0.027726566560357
0.026952779460214
0.026173989627784
0.025391056195492
0.024604880549824
0.023816401471653
0.023026587236492
0.022236425590286
0.02144691557422
0.020659063283184
0.019873879687893
0.019092377063088
0.018315562243439
0.017544425437856
0.016779938247371
0.016023067715037
0.015274751205238
0.014535896750784
0.01380738291359
0.01309005132072
0.012384707367536
0.011692109439345
0.011012976782232
0.010347969806114
0.009697714153921
0.00906275894275
0.0084436364644042
0.0078407681334559
0.0072546063762368
0.006685416511792
0.0061336107125319
0.0055992384754275
0.0050827730147637
0.0045839185549576
0.0041034796580131
0.0036405930145546
0.0031972740430896
0.0027722816317266
0.0023729320664059
0.036513539174036
0.035805940081764
0.035066899582706
0.03431380047925
0.033554352162443
0.032789057766349
0.032015864639795
0.031233127159546
0.0304406194533
0.029639250982218
0.028830279275572
0.028014790585525
0.027193659913074
0.026367706437911
0.025537791923312
0.024704837575845
0.023869815057241
0.023033734249807
0.022197629213365
0.021362547176295
0.020529543536854
0.019699679795504
0.018874019981243
0.018053626097793
0.01723955315053
0.016432844643032
0.01563452877994
0.014845612409271
0.014067073306722
0.013299858608535
0.012544876344008
0.011802998853385
0.01107504854345
0.010361811811595
0.0096640101449962
0.0089823367891018
0.0083173945929813
0.0076697867710771
0.0070399744532758
0.0064284924062636
0.0058356172069925
0.0052618769897206
0.0047072718679108
0.0041724811649556
0.003657029179308
0.0031621754702944
0.0026866344396986
0.0022336847786874
0.0018016328861747
0.0014027010336697
0.037503019500734
0.036740537006884
0.035937310049493
0.035119686064795
0.034298818502289
0.0334748287376
0.032644135648779
0.031803957136797
0.030953706951878
0.030094461434576
0.029227754388935
0.028354817998749
0.027476545968326
0.02659373993008
0.025707260220618
0.024818048706457
0.023927112940423
0.02303550771422
0.022144315849528
0.021254634633977
0.02036757123465
0.019484242294137
0.01860577156216
0.01773328570941
0.01686790820653
0.016010750692807
0.015162908838501
0.014325459005386
0.013499450298261
0.012685903464425
0.011885799608914
0.011100086034984
0.010329657457373
0.0095753755980922
0.00883803027962
0.0081183919636157
0.007417124884725
0.0067349143599524
0.0060722678743265
0.0054298177696961
0.0048078549417283
0.0042070473655938
0.0036273373003313
0.0030696547800491
0.0025333078436995
0.0020201053639266
0.0015282607911659
0.0010625736430248
0.00062090462746606
0.00022153975302124
0.038655205051636
0.037828610010892
0.036949681703016
0.036056132810537
0.035163339045021
0.034270802088863
0.033372968565018
0.032465664885188
0.031547908152595
0.030621013670943
0.029686863745005
0.028746864374516
0.027801923851092
0.026852815989085
0.025900395630062
0.024945627303644
0.023989558741746
0.023033294143361
0.022077969351292
0.021124735621252
0.020174755889403
0.019229206324999
0.018289274538469
0.017356154772112
0.016431040516467
0.015515115517575
0.01460955128886
0.013715501990228
0.012834095471069
0.011966433317981
0.011113577965228
0.010276560512183
0.0094563567961696
0.0086539145079244
0.0078701025132179
0.0071057800127383
0.0063616831703105
0.0056385938059827
0.0049370761933107
0.00425787811795
0.0036013120951146
0.002968211311208
0.0023584564296362
0.0017732741075417
0.0012117201462942
0.00067626298081582
0.00016451056155049
-0.00031688005490708
-0.00077058269241105
-0.0011707788666136
0.039968258089617
0.039068901868225
0.038103041573495
0.037122486822799
0.036147672230541
0.035177164034353
0.034202920487113
0.033219103963292
0.032224315326384
0.031220199424354
0.030209067345531
0.029192526528551
0.028171492491006
0.027146699720869
0.026118995232443
0.02508937081954
0.024058921461206
0.023028807755039
0.022000224491729
0.020974382200595
0.019952504873505
0.018935833738109
0.017925626222304
0.016923150744282
0.015929678580028
0.014946474393095
0.01397479410009
0.013015878440299
0.012070943616244
0.011141182462854
0.010227748762135
0.0093317682730428
0.0084543100309754
0.0075964198948468
0.0067590579353706
0.0059431868640142
0.0051496279920416
0.0043792761561207
0.0036327638201991
0.0029109755195657
0.0022142515483878
0.0015436214608372
0.00089889795886421
0.00028165865682581
-0.00030932442877408
-0.00087080888702693
-0.0014058635520665
-0.0019056464160681
-0.0023733678595925
-0.0027742284987587
0.041442405467978
0.040462127791716
0.039398265616984
0.038319837960704
0.037253233289093
0.036195670570141
0.035136021310326
0.034066495236456
0.0329852801133
0.03189446475045
0.030796877659237
0.029694353148667
0.028587804044129
0.027477913870351
0.026365521145011
0.025251652641819
0.024137460345127
0.023024170019297
0.021913043111138
0.02080535642847
0.019702402100918
0.018605494226202
0.01751596863753
0.016435177185423
0.015364478792039
0.014305228696062
0.013258777245663
0.012226463112949
0.011209602232724
0.010209490042792
0.0092273844698733
0.0082645194046918
0.0073220702057738
0.0064011960229402
0.0055029635876332
0.0046284549114395
0.0037785920153392
0.0029544012596439
0.0021565991263362
0.0013862284874825
0.00064366992842518
-6.9820911084164e-05
-0.00075449801489563
-0.0014083833341313
-0.0020330154924295
-0.002624273961369
-0.0031859818647583
-0.003706798536894
-0.0041904754207312
-0.0045916761907395
0.043079116929863
0.042010215781553
0.04083739821886
0.039650411795578
0.038482543906286
0.037329147215904
0.036175324157161
0.035011033358463
0.033834081808181
0.032647140716568
0.031453650817924
0.030255694790785
0.029054167746814
0.027849690008709
0.0266430942358
0.025435453450316
0.024227989618929
0.023022005113155
0.021818837306155
0.020619837865263
0.019426376136192
0.018239848967428
0.017061681242575
0.015893319327097
0.014736221186901
0.013591844504632
0.012461646470909
0.011347076137594
0.010249562956361
0.0091705200695522
0.0081113242871991
0.0070733332352279
0.0060578458384482
0.0050661517741157
0.0040994418643929
0.003158937639445
0.0022456811611925
0.0013608521841219
0.00050527010195621
-0.00031983791118758
-0.0011140349793064
-0.0018758058253662
-0.0026054650250098
-0.0033005828835009
-0.0039630262926561
-0.0045876995898191
-0.0051792362982775
-0.005723506975643
-0.0062247436343235
-0.0066255024236616
0.044880359278819
0.043715580922378
0.042423008556291
0.041117040144748
0.039838802647631
0.038581120660286
0.037324568106337
0.036056570089126
0.034774632455639
0.033482175412966
0.032183347127836
0.030880490285652
0.029574462555919
0.028265809537055
0.026955363540088
0.025644259250092
0.024333804624897
0.023025391698512
0.021720444873598
0.020420401158799
0.01912671812952
0.017840887489509
0.016564436071937
0.015298918137088
0.014045904567053
0.012806969380289
0.011583691316295
0.010377645988776
0.0091903926474275
0.0080234787398256
0.0068784183783176
0.005756712277313
0.0046598019808963
0.003589128958353
0.002546030747358
0.0015318906286589
0.0005478944624248
-0.00040459915484166
-0.0013246430391204
-0.0022107967424178
-0.0030625449297692
-0.0038780757875457
-0.0046577522838186
-0.0053986380494841
-0.0061029382780968
-0.0067644763903705
-0.007388738117558
-0.0079584999611534
-0.0084783737231602
-0.0088772035729268
0.046848065748775
0.045580577584351
0.044157590211594
0.042722544685224
0.041325317857195
0.039955336991576
0.038587776451899
0.037207273455734
0.035811185334763
0.034403884182
0.032990316316257
0.031573082059274
0.03015297570772
0.028730460032251
0.027306379710196
0.025881951618675
0.024458589095402
0.023037789163728
0.021621075450165
0.020209982412613
0.018806069289703
0.01741093716728
0.016026230049252
0.014653625726256
0.013294824188654
0.011951532403161
0.010625468119078
0.0093183515691769
0.0080318912160925
0.0067677901445565
0.0055277206017081
0.0043133490609977
0.0031262839491562
0.0019681436021062
0.00084043757836408
-0.00025526060961708
-0.0013175918878821
-0.0023449895064434
-0.003336346408544
-0.0042899768466959
-0.0052052545726491
-0.006080034051747
-0.0069147003518119
-0.0077057604070155
-0.0084557490500612
-0.0091573236493626
-0.0098168423738353
-0.010413725306006
-0.010952841580801
-0.011347736943421
0.048983428432842
0.047607087056014
0.046043350259164
0.044469532860931
0.042945209939196
0.041455385549785
0.039968855664107
0.038467238311892
0.036947969702614
0.035416614166941
0.033878995980594
0.032337948590943
0.03079417046814
0.029248039101133
0.027700432069372
0.026152675817373
0.024606311878976
0.023062958812023
0.021524253659585
0.019991842867264
0.018467403349795
0.016952663007054
0.015449401154474
0.013959437546352
0.012484620057815
0.011026806990034
0.0095878751768051
0.0081697121531047
0.0067741985425118
0.0054032169939677
0.0040586232776194
0.0027422775507503
0.0014559818115719
0.00020156268992642
-0.0010192670326544
-0.0022047099710938
-0.0033531994561619
-0.004462923684088
-0.005532575460767
-0.006560186979051
-0.0075449754688646
-0.0084844238195588
-0.009378893348221
-0.010224292603269
-0.011023449006799
-0.01176779818819
-0.012464546116234
-0.013089573772225
-0.013647791427488
-0.014035954157567
0.051286205888918
0.049795532517974
0.04808137961005
0.046359914745966
0.044701146847159
0.043084478183467
0.041471363917039
0.039840264131693
0.038188991165629
0.036524556733891
0.034853724945005
0.033179519648473
0.031502505527985
0.029822979633819
0.028141884501948
0.026460689886278
0.024781090869093
0.023104845670237
0.021433720063818
0.019769489383737
0.018113967302521
0.016469028203129
0.014836606905233
0.01321868680708
0.011617287542425
0.010034439859241
0.0084722004354053
0.0069326489428605
0.0054178665686887
0.0039299468423056
0.0024709575691168
0.0010429847123486
-0.00035194379247104
-0.0017117550855234
-0.0030344985447204
-0.0043181085117946
-0.0055607710659335
-0.0067603825966393
-0.0079153886865718
-0.0090234932103719
-0.010083697092436
-0.011093072057281
-0.01205188209642
-0.012955406214302
-0.013806684633118
-0.014595907055808
-0.015331047046832
-0.015984353396036
-0.016560502233367
-0.016938193541713
0.053754718322594
0.052144918219953
0.050271329669955
0.048394361804878
0.046594824006655
0.044844998365542
0.043098090522241
0.04132945970725
0.039537682173221
0.037731453609474
0.035918496649284
0.034101961525291
0.032282246282249
0.030459587210239
0.028635035454833
0.026810244938478
0.024987091490634
0.023167490932912
0.021353355464011
0.019546610140766
0.017749229157504
0.015963257629595
0.014190807434762
0.01243404354297
0.010695184046063
0.0089764620769788
0.0072801413223946
0.0056085220523274
0.003963914849773
0.0023486587980134
0.00076506952655794
-0.00078450009056415
-0.0022977612724577
-0.0037723478100856
-0.0052060309503792
-0.0065964207775899
-0.0079414137630552
-0.0092385492040604
-0.010485977106673
-0.011681006671668
-0.01282235664738
-0.013906635858797
-0.014933909502314
-0.015898807313421
-0.01680443180012
-0.017639742984917
-0.018413281150404
-0.019093651799901
-0.019684873197613
-0.020046580903885
0.056385003680935
0.054652071771951
0.052611121240685
0.050572170767466
0.048626747655929
0.046738284401085
0.044850909279826
0.042937114739043
0.040996740534913
0.039040403757125
0.037076755062973
0.035108978293796
0.033137276363146
0.03116186361827
0.029183958907477
0.027205444420822
0.025228402873448
0.023254926237258
0.021287091889872
0.019326997252799
0.017376804860801
0.015438762309753
0.013515198191049
0.011608486637301
0.0097210432017582
0.0078553100307308
0.0060138131059135
0.0041991330864282
0.0024138429738843
0.00066055588866163
-0.0010581317332234
-0.0027395503872523
-0.0043811051735012
-0.0059800771048756
-0.0075339165761979
-0.0090398344815584
-0.010495394529317
-0.011897686791825
-0.013244524590209
-0.014532715681844
-0.015760645331988
-0.016924364857761
-0.018023639798121
-0.019052419771077
-0.020013660699538
-0.020895169535358
-0.021705705693442
-0.02241040930278
-0.023012042852609
-0.023350637927964
0.059170572620466
0.057311660543931
0.055097039485584
0.052891236032251
0.050796046640545
0.048764307244344
0.046730420332939
0.044664409812685
0.04256792462994
0.040453700412933
0.038331237752878
0.036203648369431
0.034070932251171
0.031933347923683
0.029792353706174
0.027650105256476
0.025508914931049
0.023371068510244
0.021238831694639
0.019114500409118
0.017000445891735
0.014899139930366
0.012813154798272
0.010745189934409
0.008697913311682
0.0066738492240754
0.0046758200973019
0.0027067963607252
0.00076967925239718
-0.0011326047393192
-0.0029971456804892
-0.0048209102139399
-0.0066009473325353
-0.0083341116469272
-0.010017478799651
-0.011647767410331
-0.013222165316405
-0.014737182971254
-0.0161902725026
-0.017577564130631
-0.018897102096921
-0.020144179736465
-0.021318228592234
-0.022412390697007
-0.023429303010149
-0.024355716946331
-0.025200170940399
-0.025924725815456
-0.026530005674907
-0.026836489247805
0.062102950919739