/*--------------------------------*- C++ -*----------------------------------*\
| =========                 |                                                 |
| \\      /  F ield         | OpenFOAM: The Open Source CFD Toolbox           |
|  \\    /   O peration     | Version:  2112                                  |
|   \\  /    A nd           | Website:  www.openfoam.com                      |
|    \\/     M anipulation  |                                                 |
\*---------------------------------------------------------------------------*/
FoamFile
{
    version     2.0;
    format      ascii;
    arch        "LSB;label=32;scalar=64";
    class       volScalarField;
    location    "2.9";
    object      p;
}
// * * * * * * * * * * * * * * * * * * * * * * * * * * * * * * * * * * * * * //

dimensions      [0 2 -2 0 0 0 0];

internalField   nonuniform List<scalar> 
22000
(
0.01762532727579
0.01760206966816
0.017553752492682
0.017479312039193
0.017378214112742
0.017250479952338
0.017096445354579
0.016916483988635
0.016710991979297
0.016480415246067
0.016225159815702
0.01594549489999
0.01564148834443
0.015313085208234
0.014960540139728
0.014585029868567
0.014188316889632
0.013771166424424
0.013332635653861
0.012872088012702
0.01239110442706
0.011892366095433
0.011376883145654
0.010844293747086
0.010294623111919
0.0097297107133373
0.0091509568296674
0.0085597041052034
0.0079555865558856
0.0073402563582808
0.018063946900188
0.018039228576186
0.017988895759815
0.017911987066226
0.017807946733633
0.017676733467969
0.017518633219892
0.017334006181334
0.017123246364504
0.016886835148136
0.016625245525955
0.016338777395485
0.016027409652342
0.015690808409551
0.015329009148156
0.014943493862267
0.01453659507743
0.014109071263788
0.013659357532571
0.013186537093429
0.012692569584307
0.012180530226359
0.011651240033222
0.011104026176728
0.010538713677643
0.0099573296099708
0.0093611787990694
0.0087518695504178
0.0081287030381895
0.0074938906288316
0.018870982987144
0.018845033525505
0.018792317167813
0.018711918020825
0.018603304805869
0.01846641488731
0.018301503185019
0.018108912751029
0.017889045855547
0.017642432663059
0.017369578763954
0.017070740335598
0.016745740971994
0.016393988065775
0.01601543443116
0.01561198576107
0.015186480340726
0.01473949406956
0.014268740205659
0.013773068417104
0.013254878985969
0.012717695389588
0.012162161092945
0.011587410352562
0.01099311529983
0.010381705201299
0.0097542811362431
0.0091129651777689
0.0084562768216077
0.0077874538720667
0.019999729185728
0.019972346800509
0.019916723783463
0.019831901286509
0.019717320912163
0.01957290601702
0.019398905776321
0.019195664308146
0.018963597714038
0.018703246590885
0.018415089594957
0.018099337744322
0.017755728755995
0.017383478904037
0.016982414907185
0.016554687586934
0.016103490858346
0.015629291319989
0.01512926553177
0.014602080859386
0.014050441017667
0.013478246019489
0.012885979661104
0.012272696547274
0.011637855575244
0.010984359133679
0.010312939142421
0.009626458846565
0.0089222647658645
0.008204999273132
0.021410077762494
0.021381017401245
0.021321988114738
0.02123197659307
0.021110386076221
0.020957119439147
0.020772404556889
0.020556557984516
0.020309981193895
0.020033199011949
0.019726649450948
0.019390515570481
0.01902447039133
0.018627530544818
0.018199363327158
0.01774231820214
0.017259897161743
0.016752469484981
0.016216731618997
0.015651175230318
0.01505868636833
0.014443438503498
0.013805722311621
0.013144605103986
0.012459298312127
0.01175323313034
0.011026610223223
0.010283251743539
0.0095190058983619
0.0087403893788874
0.02306723692401
0.023036348902022
0.022973605037423
0.022877931486406
0.022748679774405
0.022585724084977
0.022389270785806
0.022159598132933
0.021897081205364
0.021602218375391
0.021275372471267
0.020916655603515
0.020525657256014
0.020101180861806
0.019642680762834
0.019152610381701
0.018634694637307
0.018089205658091
0.017512433361343
0.016902747649297
0.016263162620798
0.015598049786522
0.014907467185986
0.014190555512647
0.013446260486719
0.012678577449395
0.011887025349135
0.011076528720835
0.010241128463802
0.0093896338963926
0.024939838072111
0.024907077305948
0.024840523791191
0.0247390412319
0.024601924634092
0.024429010026669
0.024220461879398
0.023976491027073
0.023697410114919
0.02338364859883
0.023035458054898
0.022652865073806
0.022235387327822
0.021781659172844
0.0212909493258
0.02076573774182
0.02020981196126
0.019623276164523
0.01900206294305
0.018344453998427
0.017653463594682
0.016933536358523
0.016184398114981
0.01540533498072
0.014594927933351
0.013757838892456
0.012892658399705
0.012005690063898
0.011088709209968
0.010153260731959
0.026998595741101
0.026964019012637
0.026893766084085
0.0267866358394
0.026641857365288
0.026459213645177
0.026238814350322
0.02598078836841
0.02568536909973
0.025352900721326
0.024983499014497
0.024577063354738
0.02413299129875
0.023649707434951
0.023126238924512
0.022564999973345
0.021969747229766
0.021340400304537
0.020672567661963
0.019964452996611
0.019218985674381
0.018440622733745
0.017628685211867
0.016782642168669
0.015900583651769
0.014987909893145
0.014042024213317
0.013070861659016
0.012063424491864
0.011034527986116
0.029215481259144
0.029179244143871
0.029105599983414
0.028993285470876
0.028841462354529
0.02864985629722
0.028418507133202
0.028147432034868
0.027836741033604
0.027486640191048
0.027097061088768
0.026667746964268
0.026197976481484
0.025685989012152
0.025130556993644
0.024533924215243
0.023899681540746
0.023227524391423
0.022512762993765
0.021753486089139
0.020952391296968
0.020113834277236
0.019236670413959
0.018320547373201
0.01736296084974
0.01637001993789
0.015337781497931
0.014275895536687
0.013170211334668
0.012039068787597
0.031563292892447
0.031525644717222
0.031449110528455
0.031332368141457
0.0311745079257
0.030975180467923
0.030734328973938
0.030451837877164
0.030127674474211
0.029761882251452
0.029354190328148
0.028904162434089
0.028410911839816
0.027872449590884
0.027287248963445
0.026657287852322
0.02598586437343
0.025272402888386
0.02451192394703
0.023702373357706
0.022846070730704
0.021947178933308
0.021003985277603
0.020016340091322
0.018980959279677
0.017904688566797
0.016781949207104
0.015624258418192
0.014413856657488
0.013172783591221
0.034015537587384
0.033976810217464
0.033898053315713
0.033777890462599
0.033615338971074
0.033409964105604
0.033161598117967
0.032869979058129
0.032534904811322
0.032156216282784
0.031733398565448
0.031265787625231
0.030752290215337
0.030190684261935
0.029579128691974
0.028919238706356
0.028213880995689
0.02746215231626
0.026658793655389
0.025801587322196
0.024892328557395
0.023934861036286
0.022926766932638
0.021868103792875
0.020754617458758
0.019593906267723
0.01837841088779
0.017121685878677
0.015801796580189
0.014444753013631
0.036546498826654
0.036507094228465
0.036426926530098
0.036304572921654
0.036138977639638
0.035929611510525
0.035676180243961
0.035378254054128
0.035035430980751
0.034647314729947
0.034213115873284
0.033731916275462
0.03320239954848
0.032622104161923
0.031988840641881
0.031303763580462
0.030569184403981
0.029783805782527
0.028942071099981
0.028041551737389
0.027083377076015
0.026070931866067
0.025000969642854
0.023873708346358
0.022683759607149
0.021439396810828
0.020130795075111
0.018773608844292
0.017341177460545
0.015863695712137
0.039131440782401
0.039091816381255
0.039011165045473
0.038888024257045
0.038721263858923
0.038510250576371
0.038254549727039
0.037953550785077
0.037606636939532
0.037213155743969
0.036772024072408
0.036282042391864
0.035741636314619
0.035148078794742
0.034498804012981
0.033794433550018
0.033036618016149
0.032223597544592
0.031349485285686
0.030411582433713
0.029410208019875
0.028348162843889
0.027221247829504
0.026029786005317
0.024767063371925
0.023441922159118
0.022041979935817
0.020584958875302
0.019038957484838
0.017438363272334
0.041746872217423
0.041707523465071
0.041627393504263
0.041504984832769
0.041339093664211
0.041128979972062
0.040874065079648
0.040573553648949
0.040226602780082
0.039832284139659
0.039389200112375
0.038895841813274
0.038350348933942
0.037749716087776
0.0370909872591
0.036374184985957
0.035600203951398
0.03476676669889
0.03386763810299
0.032899798998593
0.031862616117115
0.030758179420483
0.029581182410835
0.028331977086504
0.027002299784953
0.025601442609732
0.024114163870696
0.022560151202729
0.020901784285231
0.019177436973723
0.044370834334363
0.044332271193907
0.04425370873958
0.044133615808796
0.043970716832327
0.04376416658216
0.043513243099563
0.043216965455273
0.042874257960911
0.042483904492651
0.042044183950356
0.041553265420942
0.041008991479469
0.040408075589258
0.039747165866274
0.039025628951329
0.038243521638069
0.037397984611273
0.03648240628742
0.035493387297209
0.034429226821205
0.033291194191475
0.032072726934631
0.030774133113841
0.029385339446532
0.027915995612674
0.026347650312252
0.02470180630956
0.022934711312664
0.021088252414838
0.046983173221066
0.046945907072832
0.046869954136215
0.046753761507474
0.04659598929315
0.046395690706386
0.046152001441415
0.045863755996589
0.045529646763179
0.045148174521223
0.044717307090717
0.044234896071312
0.043698479168306
0.043104478728027
0.042449138823322
0.0417311277851
0.040949618831812
0.040101125436275
0.039178644268336
0.038178313108741
0.037097267664872
0.035935855033588
0.034686125248242
0.033348295591864
0.031910173820376
0.03038172416603
0.028740893078265
0.027010764313833
0.025141158258156
0.023176653426036
0.049565726492329
0.049530251764024
0.04945791353408
0.049347154097673
0.049196582163472
0.049005158465141
0.04877188507804
0.048495422586843
0.048174239330238
0.047806559763187
0.047390051794454
0.046922255656242
0.046400403930922
0.045820637107875
0.04517880939903
0.044472878634487
0.043701111502124
0.042859375455878
0.041940266764506
0.040939384885025
0.039852624942573
0.038679299885255
0.037409986827258
0.036044699287382
0.034568879813927
0.032992736535345
0.031290205608211
0.029485799642831
0.027522474178443
0.025446556124007
0.052102466285682
0.052069244835183
0.052001462761224
0.051897578255714
0.051756165443826
0.051576104387199
0.051356275410901
0.051095181873644
0.050791085379739
0.050441951609629
0.050045168395495
0.04959797609456
0.049097305920213
0.048539034518649
0.04791865473982
0.047233426387796
0.046480706074411
0.04565571771168
0.04475064842741
0.043760516055155
0.042679916939438
0.041507060634916
0.040230989663061
0.038851364188034
0.037351104972993
0.035740463745066
0.033989089370333
0.032122776483114
0.030077116231577
0.027899062350744
0.054579587738398
0.054549038144542
0.054486666597394
0.054390970393436
0.054260510518569
0.054094102523683
0.053890518644394
0.053648122170357
0.053364989062134
0.053038853911388
0.052666861414473
0.052245982352942
0.05177286346788
0.051243134273869
0.05065195102446
0.049995897101396
0.049271441775446
0.048473192640513
0.047592935408686
0.046625085713406
0.045562920483556
0.044403512302883
0.043134356173422
0.041754569155494
0.040244537098536
0.038614063954113
0.036828577425917
0.034914554380116
0.032799796250284
0.030532410609021
0.056985520914481
0.056958020231057
0.056901817220801
0.056815465378878
0.056697539635381
0.056546818611639
0.056361988094506
0.056141291593938
0.055882641600635
0.055583570423664
0.055241021070263
0.05485173415352
0.054412104438103
0.053917544441765
0.053362916626151
0.052744164379608
0.052056918041872
0.051295195819825
0.050450397341156
0.049516305447918
0.048484909690919
0.047352136565985
0.04610400720894
0.044738943110806
0.043234886421806
0.041600830435761
0.039797962921644
0.03785239412311
0.035683738960136
0.033340657281669
0.059310846847971
0.059286738589705
0.059237383175616
0.059161384219072
0.059057354754081
0.058924074023106
0.058760170618137
0.058563793754011
0.05833272242817
0.058064324505141
0.057755386263378
0.057402452556419
0.057001698869443
0.056548355738362
0.056037057097359
0.055463168877984
0.054821587816679
0.054105787528595
0.05330684371843
0.052417847448205
0.051429593086855
0.050336773263953
0.049124054221908
0.047788915768551
0.04630701854462
0.044686529834504
0.042884658905176
0.040927072080304
0.03872359550583
0.036318462659274
0.061548176645314
0.06152771400327
0.061485769385798
0.061420988601142
0.061332042176293
0.061217735469963
0.061076650402045
0.060906850103347
0.060706003959104
0.060471369661283
0.06019964391065
0.05988722394628
0.059530109567863
0.05912338726634
0.05866152783646
0.058139356426197
0.05755114332883
0.056889843958441
0.056146365716519
0.055313081517078
0.054379960331682
0.053340348400787
0.052178039356703
0.050888877477006
0.049446552935437
0.047857444326917
0.046075064431493
0.044127317501103
0.041913880357602
0.039466768276333
0.06369220845563
0.063675361976141
0.063640981816497
0.063587881233507
0.063514873811453
0.063420772836783
0.063304074012439
0.063162751393818
0.062994358380892
0.062796063359671
0.062564515835786
0.062296002413784
0.061986392522346
0.061630681076075
0.061223288250562
0.060758600661717
0.060230409329292
0.059631066419983
0.058951342596285
0.058182573348543
0.05731437582857
0.05633832667776
0.055238836220718
0.0540087595507
0.052622787457806
0.05108098958517
0.049336936266272
0.047411252009553
0.045209449278841
0.042757542858331
0.065740058516074
0.065726521206552
0.065699101010648
0.065657131139789
0.06559988008165
0.065526193228811
0.065434366649445
0.065322248434763
0.065187439695365
0.065027086456039
0.064837770824523
0.064615642031275
0.064356412695538
0.064054930792493
0.063705502352441
0.063302079261993
0.062838171179368
0.062305703892014
0.061695589686192
0.060997899588991
0.060202088504661
0.059296596695283
0.058267333750977
0.057100540249935
0.055777169222448
0.054281290950367
0.052584801453634
0.050672386358155
0.048475848401545
0.045996900346191
0.067691464399135
0.067681486553856
0.067660644219076
0.067629102138901
0.067586580886786
0.067532320693422
0.067464562080397
0.067381185941314
0.067279975481047
0.067158169349405
0.067012370886908
0.066838638262428
0.06663255884158
0.066388898279506
0.066101771385874
0.065764448537766
0.065369764684388
0.064909155895788
0.064374134079271
0.063754590184394
0.063040759868303
0.062217533601208
0.061271723463126
0.06017952819159
0.05893093842823
0.05748677107046
0.05586067078507
0.053967974361454
0.051824510692129
0.049182003370025
0.0067520598392826
0.0061934693593198
0.005627536324052
0.0050555069482273
0.0044783042146056
0.0038966801854996
0.0033114030648138
0.0027233339869319
0.002133400055917
0.0015425391177035
0.00095168502098348
0.0003617800812448
-0.00022623176288504
-0.0008114179649018
-0.0013928552493954
-0.0019696419033125
-0.0025409224793273
-0.0031058687101709
-0.0036636340816481
-0.0042133736098697
-0.0047543157794641
-0.0052857441910972
-0.0058068729954597
-0.0063166741018514
-0.0068138623934123
-0.007297002156837
-0.0077667749501543
-0.0082231505542511
-0.0086656628526242
-0.0090938074120407
-0.0095074078949317
-0.0099064202453292
-0.010290697717098
-0.010660049225001
-0.011014158057739
-0.011352599102893
-0.011674936740479
-0.011980769951066
-0.012269758584598
-0.012541627425042
-0.012796169565645
-0.013033233008092
-0.013252774981943
-0.013454821720852
-0.013639469336548
-0.013806862207461
-0.013957155678685
-0.014090634005249
-0.0142076703257
-0.014309328031875
0.0068902124394921
0.0063203502374406
0.0057425412939914
0.0051588516057433
0.0045703669387643
0.0039776415933017
0.0033812018228715
0.0027817587942334
0.0021801772560881
0.0015773803752239
0.00097430072238581
0.00037187453862918
-0.00022894937765396
-0.00082719935823252
-0.001421892428849
-0.0020120731923451
-0.0025968203412047
-0.0031751856661115
-0.0037461417151537
-0.0043086267186246
-0.0048616329151485
-0.0054042857413512
-0.0059358879356786
-0.0064561393115486
-0.0069653623054257
-0.0074645234882049
-0.0079504579995442
-0.0084216938317423
-0.0088778032501811
-0.0093186424400956
-0.0097438861937437
-0.010153061823591
-0.010545921430822
-0.01092218019342
-0.011281537150785
-0.011623719281671
-0.011948475674572
-0.012255616051416
-0.012545031884025
-0.012816559611523
-0.013070027052616
-0.0133056264912
-0.013523724965627
-0.013724797590536
-0.013909285155526
-0.014077851377593
-0.014231016630582
-0.014369603076305
-0.01449379694397
-0.014603817076532
0.0071536924345269
0.0065569875852944
0.0059504417511597
0.0053380829116261
0.0047216907183572
0.0041016730047813
0.0034782233525526
0.0028518749502153
0.0022234846318478
0.0015940283391944
0.00096447871532809
0.00033579647225892
-0.00029104258868977
-0.00091503953240125
-0.0015351986610028
-0.0021505678071608
-0.0027602449848667
-0.0033633431070574
-0.0039589842553509
-0.0045463578342818
-0.005124771401501
-0.0056935625307141
-0.0062519223423831
-0.0067986107655501
-0.0073317136083999
-0.007848577096842
-0.0083507052740941
-0.0088383046348318
-0.0093108695387331
-0.0097677774255104
-0.01020844386425
-0.010632427941194
-0.011039194202129
-0.011428293187465
-0.011799430592155
-0.012152419196969
-0.012487110623035
-0.012803385130696
-0.013101133712683
-0.013380485867605
-0.013641753800389
-0.013885172466287
-0.014110817410864
-0.014318928189054
-0.014509601615572
-0.014683102896035
-0.014839375152577
-0.014978560282365
-0.015099824178491
-0.015201924613756
0.0075267113198464
0.0068882201471177
0.0062374380523282
0.0055815283649055
0.0049232823004164
0.0042627925523954
0.00359966450253
0.0029340983634894
0.0022668921491594
0.0015990678548643
0.00093163820231509
0.00026558573017452
-0.00039809441039378
-0.0010583843028628
-0.001714267778569
-0.0023647585027703
-0.003008888101092
-0.0036456490467016
-0.0042739658757843
-0.0048927358707451
-0.0055008720135861
-0.0060972908008163
-0.0066809120171855
-0.0072508360991486
-0.0078066471130322
-0.0083486888158599
-0.0088756332808932
-0.0093866647266051
-0.0098811006519261
-0.010358293194704
-0.010817715958783
-0.01125898497636
-0.011681797815316
-0.012085893255354
-0.012471039315216
-0.012837053967861
-0.013183804308089
-0.013511233944124
-0.013819346755014
-0.014108247907799
-0.014378018662857
-0.01462878879821
-0.014860594186477
-0.015073632814857
-0.015267956940839
-0.015443891514195
-0.015601404204212
-0.015740683148938
-0.015860731908904
-0.015959564017722
0.0080048732820467
0.0073113370677806
0.0066022251070145
0.0058890519868955
0.0051759859386476
0.0044626710354329
0.0037479085008029
0.0030314686686076
0.0023141179747859
0.0015970003919848
0.0008812309133501
0.00016784791078536
-0.00054211382515868
-0.0012476002457104
-0.0019475640306979
-0.0026409867348711
-0.0033268603217955
-0.0040041409948519
-0.0046717441340442
-0.0053286163357976
-0.0059738099249939
-0.006606490748333
-0.0072259205299298
-0.0078314489558252
-0.0084224523127422
-0.0089981348412826
-0.0095574668955813
-0.010099436496449
-0.010623286093271
-0.011128520661647
-0.01161477411248
-0.012081696970024
-0.012528926447686
-0.012956121196322
-0.01336298896403
-0.013749310740776
-0.014114925065223
-0.014459748818643
-0.014783728098987
-0.015086897850726
-0.015369272537939
-0.015631020235296
-0.015872225589409
-0.01609326576648
-0.016294284141024
-0.016475831985772
-0.016637851919654
-0.016780561740845
-0.016901810743615
-0.016996890723911
0.0085855646471998
0.0078248024204422
0.0070440974704806
0.0062607596925001
0.0054807863551793
0.0047032143978453
0.0039257699265721
0.0031476491534173
0.0023695706793912
0.0015928258420351
0.00081863787173266
4.8078580471169e-05
-0.00071781320447217
-0.0014779865638692
-0.0022314062594188
-0.0029770700824047
-0.0037139836390798
-0.0044411202769882
-0.0051574269324282
-0.0058618900850858
-0.0065535874625541
-0.0072316513126222
-0.0078951858664264
-0.0085431933910968
-0.0091745452417067
-0.0097878462474218
-0.010382803246987
-0.010958755024657
-0.01151504591008
-0.012051133282331
-0.012566523992237
-0.013060745972928
-0.01353337700561
-0.013984086600409
-0.014412629629631
-0.01481883966517
-0.015202593552599
-0.015563845190803
-0.015902575182013
-0.016218887533026
-0.016512863698847
-0.016784787469001
-0.017034788158025
-0.017263324966568
-0.017470458232704
-0.017656737256649
-0.017821791303451
-0.017965585949804
-0.018084746509195
-0.018172759599742
0.0092695770581878
0.0084291730373796
0.00756331758737
0.0066968391841462
0.0058379813688173
0.0049848990115834
0.0041338839048021
0.0032833647332606
0.0024339744738234
0.0015871785353975
0.00074433566153789
-9.3433898526697e-05
-0.00092507186106402
-0.0017495052531986
-0.0025656769266588
-0.0033725630939151
-0.004169141063815
-0.0049543455499624
-0.0057270698784867
-0.0064862184066307
-0.0072307441107692
-0.0079596213164673
-0.0086718036309851
-0.0093662540756487
-0.010042056742992
-0.010698528706172
-0.01133484195721
-0.011950303648851
-0.012544278653946
-0.013116179466234
-0.013665477511686
-0.014191711786646
-0.014694488870638
-0.015173495433198
-0.015628482314104
-0.016059274231377
-0.01646573623126
-0.01684782720216
-0.017205523345896
-0.017538948105268
-0.017848157858569
-0.018133453397319
-0.018394891948542
-0.018632971705644
-0.018847646754168
-0.019039558173433
-0.019208103568533
-0.019353143563321
-0.019469816635538
-0.019548309709611
0.010061662185023
0.0091300673529164
0.0081657867713977
0.0072031666183819
0.0062533030245179
0.0053132617824528
0.0043775524691902
0.0034436632073598
0.0025121537358814
0.0015847502293722
0.00066301565248112
-0.00025185646975349
-0.0011587902143555
-0.0020566978126678
-0.0029445030329016
-0.0038211557137861
-0.0046855928902243
-0.0055366961641894
-0.0063732992573423
-0.0071942506987903
-0.0079984720412865
-0.008784954068338
-0.0095527155053172
-0.010300791846658
-0.011028268300925
-0.011734292439757
-0.012418042478985
-0.013078760696771
-0.013715736050976
-0.014328319111281
-0.01491594140268
-0.015478128763734
-0.016014486530018
-0.016524697339677
-0.017008497878818
-0.017465706354069
-0.017896183364481
-0.018299899889052
-0.018676823465965
-0.019027094546216
-0.019350745841859
-0.01964813629625
-0.019919297959732
-0.020164863190686
-0.020384705252814
-0.020579646991796
-0.02074873403558
-0.020891827895348
-0.021002278224184
-0.021067599601019
0.010967710078529
0.0099328828906557
0.0088561910983281
0.0077839415988096
0.0067307404236294
0.005692230484703
0.0046606742521643
0.003632399130711
0.002607902623686
0.0015892649481813
0.0005783197828089
-0.00042365059755478
-0.0014155641900973
-0.0023963323483813
-0.0033648689498934
-0.0043201053212247
-0.0052609503570825
-0.0061862529036492
-0.0070948147478312
-0.0079854554380087
-0.0088570721244584
-0.0097086311401057
-0.010539113603043
-0.011347482437649
-0.012132707611291
-0.012893740000006
-0.013629902466025
-0.01434041660268
-0.015024517146135
-0.015681514796112
-0.016310823779502
-0.01691197734619
-0.017484596492639
-0.018028376179829
-0.018543052251974
-0.019028446105191
-0.019484414313475
-0.019910941486759
-0.02030798495103
-0.020675715968
-0.021014143529641
-0.02132369840681
-0.021604349298974
-0.021856866197892
-0.022080956039754
-0.022277690208445
-0.022445625230856
-0.022584825783322
-0.022686301188644
-0.022734687145827
0.011994655509172
0.010844495237216
0.0096409579604813
0.008445283154157
0.0072763191358538
0.0061278300836077
0.0049892565824757
0.0038555019222423
0.0027270105221745
0.001606316422697
0.00049559136628657
-0.00060378017321517
-0.0016907194987868
-0.0027641402771339
-0.0038229358717696
-0.0048660011411698
-0.0058921988791036
-0.0069003292963988
-0.0078891455277193
-0.0088574135523379
-0.0098039677629764
-0.010727705491353
-0.01162754132798
-0.01250238335852
-0.013351165784183
-0.014172828281176
-0.014966639093513
-0.015731783446431
-0.016467468605288
-0.017172988755543
-0.01784774633039
-0.018491262523233
-0.019103138735366
-0.019683051904852
-0.020230717615597
-0.020745948737123
-0.021228584404522
-0.021678612725757
-0.022095969728573
-0.022480855055717
-0.022833240387235
-0.023153629562774
-0.023441904443586
-0.023698994654051
-0.023924393165606
-0.024119466508032
-0.024282140139891
-0.024412753762431
-0.024499656574007
-0.024524707680112
0.013152871848574
0.011875414786441
0.010530157920822
0.0091967512012861
0.0078991510606661
0.0066287314177048
0.005371469698744
0.0041205725900043
0.0028764809507571
0.001642335437259
0.00042074801897533
-0.00078677459282823
-0.0019791804151744
-0.0031554089761116
-0.0043143372837991
-0.0054548081146534
-0.0065756105491722
-0.0076754655619605
-0.008753050218075
-0.0098070564944922
-0.010836248329814
-0.011839462981744
-0.01281557023466
-0.013763443497612
-0.014681982796861
-0.015570055314441
-0.016426883222802
-0.017251586871294
-0.018043328219936
-0.018801374699036
-0.019525101693746
-0.020213999707672
-0.020867637336597
-0.021485672791493
-0.022067806591508
-0.022613849053436
-0.023123622313368
-0.023597119322119
-0.024034251228142
-0.024435248009941
-0.024800032951557
-0.025129189139661
-0.025422479370257
-0.025681016799629
-0.025903995694054
-0.02609317441723
-0.026245670126612
-0.026362384548324
-0.026428566925974
-0.026423582294848
0.014451957684152
0.013034855246655
0.011532276151674
0.010046289755066
0.0086068575245012
0.0072023148198968
0.0058144288274992
0.0044344031373599
0.0030627357444138
0.0017033475346116
0.00035940710774183
-0.00096742340886843
-0.0022761228725371
-0.0035656593666409
-0.0048348869627282
-0.0060825884596779
-0.0073074743225794
-0.0085081819238502
-0.0096833054695787
-0.010831454167097
-0.011951312855472
-0.01304164991515
-0.014101274261977
-0.01512899109484
-0.016123620675528
-0.017083899024236
-0.018009061029167
-0.018898165068732
-0.019750311762968
-0.020564722174596
-0.021340729572445
-0.022077789085448
-0.022775436571812
-0.023433310587788
-0.024051088187401
-0.024628566662389
-0.025165536983881
-0.025661984679523
-0.02611778152629
-0.026533174614962
-0.026908025759332
-0.027242986895268
-0.027537686294612
-0.027793432488836
-0.028009079514696
-0.028186872844863
-0.028322963511885
-0.028419113519633
-0.028456944097021
-0.028413950681326
0.015902117765077
0.01433295321972
0.012656912959003
0.011003134211752
0.0094084933811808
0.0078574493710139
0.006326714107528
0.0048052034327707
0.0032935927311861
0.001796790033971
0.00031862739545331
-0.0011390794467673
-0.0025753717809832
-0.0039892430327429
-0.0053794786267367
-0.0067447436201493
-0.0080836301860926
-0.009394680304435
-0.010676415278781
-0.011927378848707
-0.013146185809533
-0.014331527406947
-0.015482131507524
-0.01659670852107
-0.017673974048547
-0.018712362512083
-0.01971127385072
-0.020669681597424
-0.021586580268778
-0.022461114626181
-0.023292562405708
-0.024080341872494
-0.024823953369539
-0.025523010171834
-0.026177152156583
-0.026786154354655
-0.027349762377523
-0.027867947519289
-0.028340527749391
-0.028767756520831
-0.029149426991587
-0.029486242799663
-0.02977771084042
-0.030025311572091
-0.030227576202556
-0.030387246128778
-0.030499436010917
-0.030566973909625
-0.030567469809522
-0.030477266704385
0.017513671071011
0.015779974194846
0.013913816473398
0.01207672413229
0.010313397821786
0.0086033566150124
0.0069172788711806
0.0052415203638639
0.0035771335963017
0.0019302897350389
0.00030562597597807
-0.0012948819512385
-0.0028703867389929
-0.0044199468593001
-0.0059422836367052
-0.0074359175136722
-0.0088992789162341
-0.010330766877699
-0.011728783922191
-0.013091765269451
-0.014418216123367
-0.01570671915378
-0.016955902535566
-0.018164370648226
-0.019330749254899
-0.020453179421476
-0.021531266455728
-0.022563845219718
-0.023549760836462
-0.024488055953716
-0.025377933735996
-0.026218761454344
-0.027009990469757
-0.027751201223087
-0.028441981909037
-0.029082079710272
-0.029671175772767
-0.030209226958491
-0.030695974318161
-0.031131678108812
-0.031516041785534
-0.031849798246744
-0.03213234459556
-0.032365242500571
-0.032546796613481
-0.032680074773707
-0.032759346855991
-0.032788421531606
-0.032741023917654
-0.032592675258861
0.019295859980818
0.01738538131908
0.015312248781132
0.013276267364384
0.011330829068927
0.0094492681536966
0.0075951648894722
0.0057520713264209
0.0039216945641334
0.0021117824378435
0.00032789793384766
-0.0014278306265344
-0.0031546740809082
-0.0048517262612903
-0.0065176117031694
-0.0081506955522997
-0.0097492491707203
-0.011311522220494
-0.012835771284739
-0.014320279150781
-0.015763394444364
-0.017163553970722
-0.018519289385807
-0.019829143461254
-0.021091823855082
-0.022303979958464
-0.023466818373297
-0.024578567598211
-0.025637739980567
-0.026643280588606
-0.027594335295789
-0.028490219669645
-0.029330326660319
-0.030114193899958
-0.030841345496935
-0.03151149521521
-0.032124240384116
-0.032679528392522
-0.033176985603894
-0.033616905298943
-0.033998836317793
-0.034323579920039
-0.034590361196429
-0.034800797787245
-0.034953038149181
-0.035050209590647
-0.035086125725029
-0.035065036034196
-0.0349575207319
-0.034737947286297
0.021256504262824
0.019157322361074
0.01686050508348
0.01461041767149
0.012469763861183
0.01040427038062
0.0083693599116364
0.0063456176673318
0.0043357820170702
0.0023495347925122
0.00039344176656162
-0.0015302984903742
-0.0034211165345159
-0.0052780805600717
-0.0070996085297295
-0.0088838178272474
-0.010628769350677
-0.012332542001693
-0.013993236173575
-0.015608969355704
-0.017177907734255
-0.01869827663803
-0.020168356929475
-0.021586235163455
-0.022949449059297
-0.024260556682342
-0.025514677801267
-0.026710744626145
-0.027847365094091
-0.028923501086905
-0.029938268377415
-0.03089092934169
-0.031780818024194
-0.032607408265282
-0.033370151172044
-0.03406870684481
-0.034702585793828
-0.035271717821615
-0.035775585679659
-0.036214552708054
-0.036587904128811
-0.036896665041708
-0.037139639629239
-0.037318793848509
-0.037431826494851
-0.037482062682347
-0.037462986326432
-0.037378588386306
-0.037197394270936
-0.036891516996149
0.023401670939482
0.021102069318842
0.018565129489013
0.016086561246291
0.013738382429663
0.011476884947387
0.0092483334585806
0.0070304365062251
0.004827522168532
0.0026515684298305
0.00051015641030357
-0.0015945520941108
-0.0036621866543419
-0.0056917448425029
-0.0076813596468055
-0.0096288231922835
-0.01153191894234
-0.013388499139937
-0.015196462489423