/*--------------------------------*- C++ -*----------------------------------*\
| =========                 |                                                 |
| \\      /  F ield         | OpenFOAM: The Open Source CFD Toolbox           |
|  \\    /   O peration     | Version:  2112                                  |
|   \\  /    A nd           | Website:  www.openfoam.com                      |
|    \\/     M anipulation  |                                                 |
\*---------------------------------------------------------------------------*/
FoamFile
{
    version     2.0;
    format      ascii;
    arch        "LSB;label=32;scalar=64";
    class       volScalarField;
    location    "4.2";
    object      p;
}
// * * * * * * * * * * * * * * * * * * * * * * * * * * * * * * * * * * * * * //

dimensions      [0 2 -2 0 0 0 0];

internalField   nonuniform List<scalar> 
22000
(
0.098355594722844
0.098317557326947
0.098238254831842
0.098115853662961
0.097949636260522
0.097739705954995
0.097486441742364
0.097190168407404
0.096851084674104
0.096469325142294
0.096045030280559
0.095578380776866
0.095069597574847
0.094518941502932
0.093926701917318
0.093293205898312
0.092618810664007
0.091903934512233
0.091149028064664
0.090354611985036
0.089521192015968
0.088649348239725
0.087739612557444
0.086792785682268
0.085809589473498
0.08479116520017
0.083738033782937
0.082651634187629
0.081532125107777
0.08038203222086
0.099072631162751
0.099032801814115
0.098951496712087
0.098827107372829
0.098658860749983
0.09844672880253
0.098190984311023
0.09789188985013
0.097549608972093
0.097164249206976
0.09673592045797
0.096264766597531
0.095750963015577
0.095194720883415
0.094596273357273
0.09395589512299
0.093273890860792
0.092550646064617
0.091786574946828
0.090982190646109
0.090137949111588
0.089254413656427
0.088332009206041
0.087371585383706
0.086373733238867
0.085339752006507
0.084269789896179
0.083165596787739
0.08202645608201
0.080855418112663
0.10038368969578
0.10034304100368
0.10026022676032
0.10013377609835
0.099962967658399
0.099747740360428
0.09948830206274
0.099184852665859
0.098837500274614
0.098446298656422
0.098011298915629
0.097532581226835
0.097010249153752
0.096444439506965
0.095835300522886
0.095183025651253
0.094487828889487
0.093750028524335
0.09296995115677
0.092148065871439
0.0912847075091
0.090380400669138
0.0894353789395
0.088450585699649
0.087426354497395
0.086364303014065
0.085263932446081
0.084127723621009
0.082953368614998
0.081745168346732
0.1021962041668
0.10215489024797
0.10207072258336
0.10194222347461
0.10176866170272
0.10154994951743
0.10128624859097
0.10097769786752
0.10062433304655
0.10022612758212
0.099783043113829
0.099295064018635
0.098762186779161
0.098184437650173
0.09756184048433
0.096894471833009
0.096182413059192
0.095425876168922
0.094625040836358
0.093780288569586
0.092891765168459
0.091959945910298
0.090984790967927
0.089967357029758
0.088907554636338
0.087807428666517
0.086665524978664
0.085485359314538
0.084262258523331
0.083002278644128
0.10442754534443
0.10438563728532
0.10430024928891
0.10416988583663
0.10399378614529
0.10377181637307
0.10350407432458
0.10319061873365
0.10283138913118
0.10242625027622
0.10197504109151
0.10147761374937
0.10093381784431
0.10034352864881
0.099706600373517
0.099022946964161
0.09829246070746
0.09751519459947
0.096691115266953
0.09582047582336
0.094903165517424
0.093939590906789
0.092929337033246
0.091873578981373
0.090771631358788
0.089626068636024
0.08843417487521
0.087200806722654
0.085918213022561
0.084594773302402
0.10700378186081
0.10696146514244
0.10687523158622
0.106743574121
0.10656569457681
0.10634139394417
0.10607068230875
0.1057535125383
0.10538969973069
0.10497896845122
0.10452099941143
0.10401547423651
0.10346205365673
0.10286041866477
0.10221020484209
0.10151111363752
0.10076278873355
0.099965068693396
0.099117633400647
0.098220550274107
0.097273360359266
0.096276361159454
0.095228644598375
0.094131500696568
0.092983462756068
0.091787723749219
0.090539990484641
0.089246751184751
0.087896463430174
0.086500343072489
0.10985802943825
0.10981562174031
0.10972918301621
0.10959720228428
0.10941883808122
0.10919380905017
0.1089220145293
0.10860327599968
0.10823725620323
0.10782350889227
0.10736152132538
0.10685076510434
0.10629066605348
0.10568066101337
0.10502010965825
0.1043084432121
0.10354498987195
0.10272931124352
0.10186072164138
0.10093903935141
0.099963361597848
0.098933830009482
0.097848920193772
0.096710024434397
0.095514692842604
0.094266804300245
0.092960149153618
0.091603099011475
0.090179580443447
0.088704089463458
0.11292909153837
0.11288703492187
0.11280127844532
0.11267031784989
0.11249326499065
0.11226974082091
0.11199951249394
0.11168224571896
0.11131742326325
0.11090439678535
0.11044242383436
0.10993072590681
0.10936844884378
0.10875473804411
0.10808862407715
0.10736921206823
0.10659544766116
0.10576654569287
0.10488136813175
0.10393940507978
0.10293920278041
0.1018806816422
0.10076155479214
0.099583285473552
0.098342203127084
0.097042928371836
0.095676967945692
0.094254797541169
0.092755101365186
0.091196012652554
0.11616066195617
0.11611949898997
0.11603553288573
0.11590726726336
0.11573376302364
0.11551453101234
0.11524918747052
0.1149372208996
0.11457791032699
0.11417037866458
0.11371362277779
0.11320657852857
0.11264806994528
0.11203690273374
0.1113717226775
0.11065124541613
0.10987396473398
0.10903867066831
0.10814369133265
0.10718810085929
0.10616979142622
0.10508839070493
0.10394069088139
0.10272821255375
0.10144579014966
0.10009883994016
0.098676209737537
0.097190506478629
0.095614573755528
0.09397011419335
0.11950095724641
0.11946131261675
0.11938041759115
0.11925678528945
0.11908941974097
0.11887771416103
0.11862112149223
0.11831893608879
0.11797021367567
0.11757382633959
0.11712848338896
0.116632803154
0.11608525002265
0.11548424673987
0.11482800592707
0.11411479682374
0.11334260029038
0.11250970265951
0.1116138214149
0.11065351200838
0.10962591489972
0.10853025838394
0.10736227508766
0.1061234561421
0.1048069683967
0.10341890423619
0.10194550491159
0.10040089741235
0.098753367633307
0.097024799915596
0.12290260689056
0.12286516582343
0.12278873794883
0.12267185879524
0.12251347240354
0.12231284768282
0.12206926750216
0.1217818232032
0.12144933467579
0.12107040761386
0.12064344449145
0.12016672427992
0.11963832448917
0.11905625133862
0.11841824313728
0.11772207138159
0.11696514646031
0.11614517343163
0.11525919140602
0.1143051169913
0.11327928386096
0.11218031701688
0.1110029130635
0.1097481217489
0.10840771188171
0.10698748615371
0.10547225625039
0.1038755514068
0.10216394990586
0.10036036331999
0.12632265645079
0.12628813332305
0.12621762743682
0.12610971792636
0.12596329246023
0.1257774912084
0.12555142379404
0.12528397692026
0.12497373172362
0.12461902246193
0.12421793668188
0.12376840139157
0.12326808867587
0.12271456498277
0.12210506397327
0.12143682054133
0.12070662843442
0.1199115499298
0.11904788370184
0.11811280651984
0.1171017799636
0.11601265667535
0.11483905938366
0.11358134574318
0.11222979797277
0.11078989825053
0.10924425756216
0.10760699674818
0.10584062600215
0.1039695652129
0.12972267883515
0.12969178995428
0.12962866599222
0.12953195554851
0.12940050054374
0.12923331356747
0.12902933253392
0.12878724483276
0.12850539936065
0.12818186416445
0.12781441426321
0.12740062498442
0.12693775950494
0.12642293574352
0.12585286796522
0.12522423378244
0.12453317843656
0.12377607860221
0.12294843564928
0.12204661716586
0.12106512573891
0.12000094316946
0.11884649272155
0.11760131674045
0.11625400843207
0.11480962473083
0.11324822574456
0.11158444480426
0.10977619605899
0.10784897194242
0.13306889632456
0.13304233449949
0.13298800663583
0.13290465887122
0.1327911030882
0.13264623196524
0.13246881952397
0.1322573660632
0.13201000388565
0.13172455161703
0.13139848767367
0.13102905075956
0.13061310720379
0.13014733547137
0.12962793247074
0.12905101318862
0.12841206034017
0.12770674319975
0.12692972893842
0.12607652855183
0.12514061626482
0.12411802196131
0.1229998589318
0.12178473300797
0.12045935699287
0.11902823467589
0.11746846785501
0.11579527503676
0.1139607972531
0.11199276605739
0.1363322547582
0.13631066630075
0.1362664562592
0.13619849727727
0.13610559023546
0.13598652143198
0.1358399160768
0.13566410756582
0.13545703654039
0.1352162999351
0.13493910793091
0.13462239131678
0.13426264693523
0.13385613982655
0.13339857090721
0.13288551042022
0.13231178542938
0.13167235955747
0.13096105299133
0.13017249986242
0.12929909962238
0.1283358787077
0.12727254952715
0.12610669443634
0.12482296662031
0.12342521688667
0.12188721563948
0.12022446400942
0.11838284262542
0.11638846294206
0.13948841642643
0.1394723816561
0.13943947858512
0.13938873580244
0.13931896456306
0.13922886295494
0.13911692889069
0.13898135645372
0.13881992806364
0.13863005652485
0.13840872381005
0.13815259477747
0.13785783934964
0.13752035263126
0.13713538065614
0.13669798869895
0.13620238005859
0.13564284104623
0.13501235595166
0.13430469187735
0.13351115465492
0.1326257459298
0.13163671751269
0.13054055859086
0.12931977331157
0.12797736337091
0.12648373631718
0.12485407081137
0.12302789421549
0.12102838338733
0.14251765708108
0.14250767351982
0.14248710391644
0.14245515836436
0.14241068141899
0.14235230541906
0.14227842797568
0.14218713754257
0.14207609869917
0.14194258585754
0.14178340323139
0.14159500400461
0.14137328860093
0.14111384187214
0.14081151436616
0.14046092641985
0.14005571177967
0.13958953424163
0.13905458423943
0.13844379902615
0.13774741083974
0.13695839402119
0.13606354390201
0.13505816641436
0.13392263372053
0.13265887294562
0.13123391281553
0.1296622084133
0.12787627521656
0.1258952971636
0.14540467633011
0.14540114882301
0.145393748159
0.14538189842195
0.14536449882094
0.14534013860628
0.14530714669222
0.14526354519632
0.14520692720542
0.1451344807906
0.14504289095161
0.14492846264079
0.14478689617341
0.14461353870723
0.14440292162654
0.14414929855737
0.14384581092918
0.14348557977693
0.14306007258571
0.14256146759713
0.14197897942991
0.14130458746006
0.14052367645334
0.139630313431
0.13860277438901
0.13744172182969
0.13611079202653
0.13462351307333
0.13290474703821
0.13096911038524
0.14813830041649
0.14814153976219
0.14814795004234
0.14815719427809
0.14816824940901
0.14817968950447
0.14818980845334
0.14819660350343
0.14819764624781
0.14819009467323
0.14817057990534
0.14813532943242
0.14807992364144
0.14799955429101
0.14788852509637
0.14774081528713
0.14754917325449
0.14730627693588
0.14700296889473
0.14663076585869
0.14617795244324
0.14563559043655
0.14498773564448
0.14422724314742
0.14333035381495
0.14229635155782
0.14108535391627
0.13970976802053
0.13808628678035
0.13622464515107
0.15071113978939
0.15072135711746
0.15074201895047
0.15077305054101
0.15081352834454
0.150862036991
0.15091687355621
0.15097605409184
0.15103717805877
0.15109742746952
0.15115344694392
0.15120146045435
0.1512370188586
0.15125524848058
0.15125033401924
0.15121608179832
0.15114497171232
0.15102935050761
0.15085956875424
0.1506265946822
0.15031790597739
0.14992373919582
0.14942693151945
0.14881920131083
0.14807490993227
0.14719203468974
0.14612717810991
0.14489126912271
0.14339195355704
0.14163340299002
0.15311915590842
0.15313648029557
0.15317166167305
0.15322489341104
0.153295365711
0.15338170295586
0.15348224620964
0.1535950788135
0.15371788434078
0.15384792466775
0.15398192435177
0.15411616971659
0.15424627060635
0.15436737135162
0.15447366025213
0.15455887236215
0.15461537718295
0.15463530126461
0.15460869422351
0.15452608608473
0.15437435970176
0.15414299972757
0.15381381337507
0.15337735697178
0.15280628251005
0.15209737652134
0.15120413847149
0.15013657917525
0.14879196648618
0.14716688812131
0.15536122352312
0.15538569868595
0.15543549885019
0.15551108785257
0.15561178886433
0.1557362861734
0.15588298430494
0.15605006361816
0.15623534657325
0.15643624624914
0.15664965653966
0.156872003565
0.15709904932225
0.15732602319117
0.15754723721905
0.15775642900294
0.15794603920844
0.15810804690641
0.15823246546126
0.15830942753754
0.15832560404218
0.15826967820639
0.15812296744487
0.15787454067698
0.1574958595045
0.15698168461402
0.15628288657977
0.15540972654306
0.15424987909729
0.1527940195551
0.15743873253105
0.15747021942699
0.15753447297216
0.15763225762448
0.15776307525071
0.15792568679361
0.15811856496042
0.15833998595372
0.15858792152597
0.1588599700508
0.1591532658426
0.15946445943353
0.15978958836626
0.16012407019209
0.16046249600094
0.1607986772272
0.16112532075984
0.16143426530445
0.16171580292589
0.16195954931107
0.16215255308767
0.16228225300238
0.16233069569013
0.16228425907836
0.16211561110639
0.16181409927134
0.16133046128824
0.16066858418809
0.15971170475702
0.15845528361013
0.15935549746177
0.15939349494194
0.15947146241996
0.15959066426677
0.15975085612792
0.15995088173405
0.16018929805566
0.16046448895918
0.16077460573344
0.16111746574195
0.16149044807994
0.16189040116947
0.16231363001121
0.1627557782473
0.16321185732542
0.16367590480061
0.16414116062501
0.16459943190555
0.16504165232187
0.16545678400036
0.16583293607344
0.1661555338415
0.16640912744487
0.16657487061426
0.16663190376232
0.16655689499277
0.16631351899666
0.16587302938838
0.16512948973506
0.16403277618608
0.16111824048252
0.16116211055184
0.16125229003579
0.1613912160567
0.16157875572111
0.16181387072564
0.16209534570978
0.16242168761058
0.16279127520865
0.1632022721631
0.16365247589314
0.16413907775011
0.16465863557373
0.1652068937252
0.16577908169727
0.16636940210205
0.16697169386959
0.16757807198057
0.16818052360589
0.16876789193165
0.16932989087074
0.16985019998106
0.17031688463056
0.17070477348151
0.17100355282369
0.17117079373007
0.17120357413054
0.17101595108353
0.17056968600374
0.16954266500033
0.079273837729828
0.078212913714275
0.077127915444935
0.076020837274101
0.074893538947939
0.073747398859635
0.072583495275313
0.071402854956929
0.070206584409593
0.068995884962795
0.067772008204907
0.066536207683705
0.065289718133258
0.064033762156094
0.062769567370338
0.061498379960965
0.060221471048151
0.058940138368857
0.057655706043253
0.056369523987815
0.05508296628805
0.053797430793505
0.052514345541552
0.051235172034782
0.049961388964739
0.048694182978515
0.047434528214661
0.046183675397671
0.04494298557336
0.043713764948684
0.042497214374234
0.041294451824417
0.0401065313558
0.038934437737434
0.037779087527286
0.036641343131816
0.035522029919506
0.034421927599913
0.033341771700726
0.032282229480644
0.031243913014247
0.030227318545482
0.029232874416133
0.02826083867256
0.027311483879606
0.026384869788479
0.025481269747502
0.024600549531775
0.02374313121388
0.022908372537246
0.079731501270275
0.078658751660951
0.077558556806132
0.076435819878774
0.075293353694017
0.074132152812588
0.072952601785238
0.071755273837394
0.070541118415705
0.06931133236203
0.068067194516359
0.066809979826543
0.065540949854826
0.064261375929185
0.062972558868634
0.061675835129863
0.060372573975898
0.059064173099227
0.057752056489191
0.056437671308864
0.055122483637466
0.053807965973107
0.052495569225355
0.051186688544807
0.049882639799177
0.048585015934233
0.047295618136814
0.046015880924225
0.044747068874789
0.043490446601588
0.04224729996949
0.04101886927906
0.039806314075434
0.038610729545874
0.037433165283852
0.036274608428487
0.035135972514027
0.034018089319633
0.032921728819485
0.031847577653293
0.030796268700108
0.029768321455374
0.028764225041506
0.027784310300091
0.026828945986121
0.025898260869221
0.024992573200284
0.024111819922855
0.02325645892785
0.022426538235292
0.080587487242961
0.079479222453281
0.07833635922827
0.077170061701108
0.075985405110746
0.07478292788196
0.073561942490591
0.072322418445575
0.071065243289864
0.069791787095975
0.068503496940231
0.067201742229098
0.065887833079141
0.064563082377604
0.063228843168949
0.061886514156962
0.060537531889632
0.059183362447069
0.057825496341899
0.056465446939952
0.055104745943673
0.05374494156004
0.05238760019861
0.051034314223998
0.049686727280349
0.048346439423855
0.047014938288566
0.045693730494325
0.044384288197322
0.043087998386953
0.041806176322852
0.040540112136722
0.039291071900661
0.038060250057849
0.036848748311684
0.035657582808179
0.034487703688962
0.03333998024483
0.032215206790038
0.031114076032044
0.030037213956078
0.028985129295359
0.027958289532065
0.026957009424753
0.025981631017426
0.025032285912585
0.02410933664403
0.02321297158825
0.022344507636248
0.021506537325469
0.081794490504176
0.080629275794948
0.079419480018504
0.07818599799318
0.076937220870805
0.075672847475081
0.074390497296555
0.073089213486931
0.071769785069097
0.070433822664423
0.069082990614574
0.067718756568888
0.066342457431183
0.064955422436375
0.063559035456455
0.062154738639104
0.060744015734604
0.059328378705851
0.057909363691188
0.05648853260801
0.055067477123225
0.053647820022934
0.052231211467841
0.050819319132766
0.049413808526111
0.048016326113608
0.046628485368286
0.045251861656993
0.043887989892126
0.042538368511298
0.041204461455191
0.039887676371931
0.038589340649342
0.037310690861189
0.036052886270617
0.034817004786911
0.033604049090233
0.03241492156234
0.031250451337724
0.030111354068273
0.028998297824305
0.027911808803369
0.026852414458519
0.025820440463008
0.024816334733903
0.023840252624771
0.022892817867872
0.02197443899827
0.021087488650301
0.020236783523417
0.083323800427852
0.082083257712419
0.080785065254516
0.079463392095597
0.078130983028598
0.076786260692203
0.075424500422413
0.074043503461308
0.072643953289299
0.071227800958435
0.069797001111551
0.068353139162108
0.06689757021071
0.065431628267765
0.06395672269302
0.062474339041693
0.060986011054021
0.059493301787553
0.057997799364972
0.056501120859385
0.055004917902815
0.053510875632344
0.052020703583365
0.050536119535228
0.049058831452467
0.047590537271371
0.046132928723215
0.044687671141642
0.043256398175979
0.041840706329641
0.040442135296282
0.039062143718566
0.037702110040879
0.03636333249272
0.035047035833814
0.033754351877393
0.032486335469794
0.031243933291469
0.030028028989333
0.028839373054665
0.027678686820442
0.026546507113113
0.02544341973542
0.024369722965318
0.023325951329286
0.022312193262067
0.021329335056472
0.020378024049064
0.019462369237525
0.018591316003709
0.0851554276664
0.08382282833923
0.082416105195402
0.080986523275719
0.079552256078306
0.078109966242747
0.076651901499504
0.075174304644179
0.07367776075544
0.072164676842959
0.07063738333017
0.069097611121689
0.067546730139377
0.065986072403492
0.064417071955089
0.062841259121359
0.061260217370676
0.059675556404089
0.058088906201144
0.056501923235348
0.054916297203786
0.053333753411744
0.051756047206666
0.050184953199672
0.048622259478911
0.047069752219338
0.045529217003152
0.044002421880746
0.042491101833438
0.040996928866442
0.039521508543468
0.038066385623909
0.036633040663054
0.035222859538178
0.033837140519232
0.032477080741781
0.031143807979274
0.029838324887569
0.028561576980363
0.027314342902172
0.026097403953846
0.024911293058606
0.023756673656005
0.0226337847634
0.0215433119985
0.020485227744428
0.019460880740515
0.018471049193438
0.017522009736513
0.016626579720406
0.08727677653891
0.085836771310674
0.084302351069141
0.082746113817742
0.081192791756513
0.079636701396506
0.078066303161253
0.076475952356141
0.074866158272648
0.073239917089614
0.071600032771918
0.069948418921569
0.068286468802402
0.066615520716817
0.064937047325845
0.06325263758944
0.061563931390044
0.059872583349024
0.058180258685511
0.056488645379841
0.054799469691513
0.053114505373492
0.051435573066506
0.049764532515588
0.048103273706616
0.046453681359887
0.044817620175958
0.043196940278398
0.041593456113711
0.04000892881698
0.038445065666475
0.036903505534731
0.035385810019457
0.033893436599929
0.032427758605569
0.030990034682819
0.029581454107246
0.028203056355539
0.02685584475397
0.025540614281367
0.024258215167484
0.023009155012695
0.021794199145258
0.020613483438354
0.019467904321752
0.018357220180801
0.017283401515718
0.016247261792031
0.01525806458983
0.014333679615745
0.089679981601283
0.088118195486964
0.086437435290141
0.084736363303475
0.083047521788694
0.081362210794345
0.07966420959744
0.077945590843512
0.07620683672826
0.07445171299594
0.072683603720358
0.070904621689441
0.06911617344339
0.067319607155771
0.065516452349807
0.06370837905974
0.061897105602519
0.060084351657036
0.05827183493096
0.056461290190123
0.054654493245599
0.052853275755492
0.051059525302319
0.049275171912892
0.047502170785189
0.04574248141228
0.04399806985832
0.04227088518707
0.040562848974848
0.038875834653179
0.037211655088188
0.035572042888539
0.033958657812855
0.032373054479324
0.030816704426426
0.029290941548415
0.027797039972012
0.026336095681309
0.024909205530123
0.023517192086574
0.02216101613724
0.020841151499051
0.019558530519557
0.018313144307273
0.017106221280659
0.015937205283997
0.01480895510722
0.013722144902886
0.012689745518165
0.011734824001462
0.092361262781221
0.090664384162807
0.088819271101362
0.086955750104719
0.085115475527435
0.083286078277063
0.081445727691974
0.079583733867
0.077700586198459
0.075801059944464
0.073889261577388
0.071967507288383
0.070037192380907
0.068099679952566
0.066156579380501
0.064209665961955
0.062260759039209
0.060311665411362
0.058364175579257
0.056420086797222
0.05448123398079
0.052549510464285
0.050626871818608
0.048715325681029
0.046816919108228
0.044933717002484
0.043067803828891
0.041221254150884
0.039396117723493
0.037594394152979
0.035818023316564
0.034068860854051
0.032348690213112
0.030659175922761
0.02900190031142
0.02737828411206
0.025789705232927
0.024237320705822
0.022722335177422
0.021245587842785
0.019808172526829
0.018410499509785
0.017053715253564
0.015737591125845
0.014463793221346
0.01323127468594
0.012044050361636
0.010902322860066
0.0098237218543631
0.0088367834606519
0.095319442839893
0.093474049357915
0.091446900465966
0.089404171826331
0.087397463027368
0.085409767913805
0.083412705585071
0.08139244959151
0.079349602797263
0.077290206341957
0.07521923115856
0.073139207072307
0.071051502172333
0.068957509762765
0.066858954469985
0.064757750857867
0.062655847584425
0.060555162623312
0.058457579439774
0.05636497540088
0.054279261582738
0.052202411839862
0.050136472783213
0.048083557171149
0.046045833659538
0.044025493597221
0.042024756741841
0.040045841583775
0.038090945436983
0.036162213479247
0.03426173277303
0.032391500903442
0.030553444290556
0.028749354076886
0.026980944803015
0.025249740549322
0.023557247234812
0.021904693030292
0.020293420627201
0.018724288024993
0.017198569480866
0.015716592588568
0.014279797780075
0.012887663800292
0.01154245445087
0.010242441056723
0.0089931756949832
0.0077939846847127
0.0066683009099456
0.0056500025200445
0.098557358119137
0.09654852206488
0.09432086298264
0.092082647909855
0.089895499578859
0.087736128575629
0.085568437785149
0.083375260543283
0.081157597051461
0.07892301562891
0.076677445016136
0.074423630780012
0.072162910076006
0.069896725308382
0.067626953215034
0.065355691183089
0.063085058110204
0.060817118916518
0.058553882121511
0.056297334488822
0.054049490767098
0.051812432694686
0.049588325509096
0.047379412474598
0.045188003746805
0.043016441105259
0.040867110135376
0.038742399133911
0.036644681936021
0.03457628225914
0.032539467231036
0.030536405489705
0.028569197689908
0.02663979310433
0.024750075197628
0.022901699037763
0.021096335804856
0.019335302518009
0.017620124746533
0.015951678641803
0.014331480561418
0.012759737401997
0.011238286845999
0.0097662029953593
0.0083465522272971
0.0069766530968984
0.0056640564536879
0.0044066283924512
0.0032349027370108
0.0021875882473308
0.10207325990869
0.099890277035821
0.097444413667043
0.094994318984089
0.092613163897022
0.09026938373302
0.08791755973346
0.085537012770814
0.083129546440261
0.080704528977264
0.078268921613572
0.075825692197297
0.073376147925595
0.070921798696701
0.068464715109996
0.066007228858158
0.063551678483753
0.061100321427381
0.058655334670474
0.056218855879315
0.053793042041731
0.051380117072975
0.048982395110627
0.046602279561472
0.044242254416813
0.041904847315094
0.039592648085981
0.037308257486383
0.035054265820616
0.032833214078284
0.030647592159386
0.028499783294345
0.02639210489711
0.024326702294876
0.022305667868358
0.020330818351738
0.01840403039522
0.01652672840485
0.014700670158607
0.012926747133156
0.011206791566329
0.0095408436210111
0.007931267216698
0.0063765952660666
0.0048809515068349
0.0034403644868384
0.0020649478950818
0.00075034898486148
-0.00046428471482092
-0.001536375795334
0.10586624167597
0.10349972400682
0.10081920960825
0.098141986389159
0.095554055866634
0.093013712945246
0.090464742807191
0.087882779629936
0.085270797089418
0.082640240826065
0.079999198409625
0.077350868819481
0.07469653246477
0.072037796066016
0.069376978426468
0.066716708961192
0.064059603190985
0.061408160732201
0.058764774945611
0.056131782850986
0.053511531624094
0.050906434486215
0.048319001806945
0.045751844434574
0.043207668053182
0.040689232757834
0.038199380152346
0.035740969161968
0.033316856187258
0.030929851123858
0.028582716028443
0.026278094912063
0.024018569869984
0.021806528922625
0.019644322539958
0.017533971263091
0.015477608797351
0.013476798264598
0.011533592472934
0.0096489055572304
0.0078249752167017
0.0060616318884725
0.0043619136509298
0.0027236662183619
0.0011523543441052
-0.00035766907012823
-0.0017930904578129
-0.0031614352529146
-0.0044132209610057
-0.0055036230833176
0.10993414624839
0.10737555044136
0.10444421134405
0.10152662009969
0.098721170742892
0.09597331174684
0.093214761224269
0.090417694754126
0.08758679058028
0.084735848581333
0.081874130311634
0.079005047969094
0.076129857492249
0.073250304811412
0.070369028805818
0.06748903256848
0.064613275734582
0.061744560514387
0.058885554949484
0.056038854481972
0.053207056098449
0.050392821705075
0.047598916831251
0.044828218881405
0.042083716140799
0.039368459845433
0.036685602148555
0.034038323126745
0.031429807169215
0.02886319066702
0.026341566995878
0.023867903210177
0.021445109776269
0.019075876364167
0.016762871036013
0.014508371248978
0.012314828941721
0.010183989299932
0.0081182689877297
0.0061186221742229
0.004187784655231
0.0023253441763417
0.00053515463663317
-0.0011857441551981
-0.0028303010211273
-0.0044061481123255
-0.0058962192596495
-0.0073121323314175
-0.0085924142628482
-0.00969223298008
0.11427441094501
0.11151830616765
0.10831749447092
0.10514666292396
0.10211516569863
0.099150719307378
0.096171292862487
0.093146150195746
0.09008248689944
0.086996789566616
0.08389949123707
0.080794163833645
0.077682050846907
0.074565110245261
0.071446397174595
0.068329381851466
0.065217448455354
0.062113773382988
0.059021370605754
0.05594316616058
0.052882078828618
0.049841090998034
0.046823295026264
0.04383190629566
0.04087026627056
0.037941790257442
0.035050016595711
0.03219851916402
0.029390882562272
0.026630646067842
0.023921312950179
0.021266250894459
0.018668773301693
0.016131942892536
0.013658816139674
0.01125199589039
0.0089143219889765
0.0066477802494245
0.004455223928158
0.0023376830915024
0.00029848230863232
-0.001663045977404
-0.0035421123059046
-0.0053425569054658
-0.0070556251686003
-0.0086910400796963
-0.010227894987606
-0.011682146924322
-0.012979642369284
-0.014076518968422
0.11887466977971
0.11591493229712
0.11243558238803
0.10900347284332
0.10573777956812
0.1025478534845
0.099337018901538
0.096071647030018
0.092762090494529
0.0894278785371
0.086080591482152
0.08272386372511
0.079358924700027
0.07598803206437
0.072614774188822
0.069243193029292
0.065877188028311
0.062520399575636
0.059176279951609
0.055848178598802
0.052539426335782
0.049253412916819
0.04599364209384
0.042763751178193
0.039567520794063
0.036408816226754
0.033291649173834
0.030220080413022
0.027198188504472
0.024230011142715
0.021319550710829
0.018470668295249
0.015687165968419
0.012972573440656
0.01033041665913
0.0077637127269178
0.0052757608114574
0.0028688712370302
0.00054640298106124
-0.0016904744530182
-0.0038377572738222
-0.0058963718608531
-0.0078604346957911
-0.0097347867666476
-0.011508766616647
-0.013194348523822
-0.014766939275337
-0.016246786633037
-0.01754846590886
-0.018628395189245
0.12372275499023
0.1205571530449
0.11679062105044
0.11309154952148
0.10958703240297
0.10616473610881
0.10271295660787
0.099196213213591
0.095628680820638
0.092033069601607
0.088422031707603
0.084799189694291
0.081165790410242
0.077524514057407
0.073879618876991
0.070235827800156
0.066597644990851
0.062969265895526
0.059354683962708
0.05575778109124
0.052182409244712
0.04863247257857
0.045111990299171
0.041625124489794
0.038176198488126
0.034769634261296
0.031410024474957
0.028102028872651
0.02485033126442
0.021659585229487
0.018534400265047
0.015479247889332
0.012498516893093
0.0095963239224108
0.0067767476211932
0.0040433454608367
0.0013999344518526
-0.0011507205718206
-0.0036047186900871
-0.0059606253180539
-0.0082137002308346
-0.01036509774969
-0.012407606681683
-0.014347386339869
-0.016171140157171
-0.017894097717623
-0.019486594544638
-0.020975253767116
-0.022263505920207
-0.023314401013518
0.12880243901752
0.12543100283693
0.12137168809126
0.11740338598601
0.11365805159543
0.1099984132034
0.10629770977274
0.10251988091509
0.098683693357612
0.094815063767459
0.090927497163794
0.087024520218056
0.083107487668623
0.079179660784061
0.075246120362814
0.071312398678453
0.067383723034285
0.063464966895057
0.059560791551856
0.05567573752156
0.051814299447401
0.047981011799719
0.044180523249098
0.04041763382688
0.036697339296612
0.033024732382774
0.029405111439735
0.025843872628716
0.02234644559518
0.018918241741069
0.015564607499188
0.012290762762378
0.0091017964297408
0.0060025591330864
0.0029977752508686
9.1712978710891e-05
-0.0027112542870759
-0.0054076995160651
-0.0079932267290681
-0.010465861846842
-0.012820246551588
-0.015057478724741
-0.017169022379921
-0.019162447389585
-0.021021121679408
-0.022764978719937
-0.024357083655007
-0.025834648289678
-0.027086704934879
-0.028093197417295
0.13409169379751
0.13051822749846
0.12616490738642
0.12192873851028