/*--------------------------------*- C++ -*----------------------------------*\
| =========                 |                                                 |
| \\      /  F ield         | OpenFOAM: The Open Source CFD Toolbox           |
|  \\    /   O peration     | Version:  2112                                  |
|   \\  /    A nd           | Website:  www.openfoam.com                      |
|    \\/     M anipulation  |                                                 |
\*---------------------------------------------------------------------------*/
FoamFile
{
    version     2.0;
    format      ascii;
    arch        "LSB;label=32;scalar=64";
    class       surfaceScalarField;
    location    "14.3";
    object      phi;
}
// * * * * * * * * * * * * * * * * * * * * * * * * * * * * * * * * * * * * * //

dimensions      [0 3 -1 0 0 0 0];

oriented        oriented;

internalField   nonuniform List<scalar> 
43645
(
0.39512380125252
-4.9282234727909e-06
0.39513859149743
-1.4790286781453e-05
0.3951632057094
-2.4614257279594e-05
0.39519762454864
-3.4418886030929e-05
0.3952418271124
-4.4202610742817e-05
0.39529580787362
-5.3980807686078e-05
0.39535957268631
-6.3764858234985e-05
0.39543311880822
-7.3546166370263e-05
0.39551641062045
-8.3291855502161e-05
0.39560937275817
-9.2962179789464e-05
0.39571189167045
-0.0001025189530928
0.3958238363053
-0.00011194467447094
0.39594506325717
-0.00012122699027993
0.39607544071145
-0.00013037749154922
0.39621482878377
-0.00013938810846102
0.39636310954726
-0.00014828079863179
0.3965201291426
-0.0001570196295001
0.39668576776316
-0.00016563865390092
0.39685981582923
-0.00017404809861851
0.39704214992775
-0.00018233413047712
0.39723246012124
-0.000190310224882
0.39743066575625
-0.00019820566604317
0.39763628867056
-0.00020562294502552
0.39784941217099
-0.00021312353100841
0.39806922756406
-0.00021981542357414
0.39829624453105
-0.00022701699757754
0.39852893079957
-0.00023268629922571
0.39876881275616
-0.00023988198717361
0.39901272726405
-0.0002439145381264
-0.00025180369450859
0.3992645309276
0.3729471276895
-9.501236260878e-06
0.37296093349055
-2.859615746943e-05
0.3729841119931
-4.7792830735627e-05
0.37301664107171
-6.6948035452829e-05
0.37305850386142
-8.606547030968e-05
0.37310970311113
-0.00010518012595842
0.37317025306283
-0.00012431487696636
0.37324015899384
-0.00014345216284931
0.37331939492907
-0.00016252785454284
0.37340789853491
-0.00018146584784013
0.37350557296073
-0.00020019343944915
0.37361230645538
-0.0002186782280684
0.37372797601454
-0.00023689660675408
0.3738524699639
-0.00025487149675007
0.37398566775337
-0.00027258595227616
0.37412746985906
-0.00029008295738098
0.37427774070213
-0.00030729052435545
0.37443637880302
-0.00032427680554188
0.37460319421411
-0.00034086355947374
0.37477808313857
-0.00035722310396292
0.37496075734985
-0.00037298448450742
0.37515115561053
-0.00038860397464623
0.37534882348271
-0.00040329086474965
0.3755538611144
-0.0004181612101368
0.37576548926242
-0.000431443618934
0.3759842296109
-0.00044575739357389
0.37620859749844
-0.00045705423442404
0.37644011952475
-0.00047140406086485
0.37667572883011
-0.00047952388959844
-0.00049535100190908
0.37691927608981
0.35201534567588
-1.3949454709054e-05
0.3520287451174
-4.1995670764314e-05
0.35205112549541
-7.0173280757553e-05
0.35208248624591
-9.8308857110316e-05
0.35212282957467
-0.00012640886874362
0.35217217027246
-0.00015452089173171
0.35223052938725
-0.00018267405787216
0.35229791856029
-0.00021084140015509
0.35237432231792
-0.00023893167449178
0.35245969583664
-0.00026683942701575
0.35255396609556
-0.00029446375687513
0.35265704981377
-0.00032176200297641
0.35276885325865
-0.00034870010647232
0.35288929398479
-0.00037531227609333
0.35301827736026
-0.00040156937928927
0.35315572991491
-0.00042753556220816
0.35330153824845
-0.00045309890671108
0.35345562791084
-0.00047836651572891
0.35361783022525
-0.00050306592069209
0.35378807412404
-0.00052746704891634
0.3539660890299
-0.00055099943593426
0.35415185432473
-0.00057436931480303
0.35434491963691
-0.00059635622204585
0.35454544056201
-0.0006186821804865
0.35475261167084
-0.00063861477315517
0.35496704596895
-0.00066019173754942
0.35518716660926
-0.00067717492103152
0.35541467059499
-0.00069890809296684
0.35564624730198
-0.00071110064185568
-0.00073516642574552
0.35588606267847
0.33225834353692
-1.8249092341734e-05
0.3322713134681
-5.4965666546714e-05
0.33229295943117
-9.1819308680568e-05
0.33232328400626
-0.0001286334963622
0.33236230423944
-0.00016542916480108
0.33241004996536
-0.00020226667908867
0.3324665522556
-0.00023917640790463
0.33253183094796
-0.00027612015071317
0.33260588279012
-0.00031298357311525
0.33268868375867
-0.00034964045039261
0.332780189831
-0.00038596988227914
0.33288035317094
-0.00042192539438713
0.33298911680464
-0.0004574637899779
0.33310643549643
-0.00049263101621816
0.33323224744834
-0.00052738137805335
0.33336651267567
-0.00056180083515764
0.33350914558226
-0.00059573185770536
0.33366010661747
-0.00062932759441677
0.33381925302058
-0.00066221236639357
0.333986556338
-0.00069477040834111
0.33416176583118
-0.00072620897057175
0.33434491478413
-0.00075751830898771
0.33453555254187
-0.00078699402079357
0.33473391093687
-0.00081704061658391
0.33493914094576
-0.00084384482323637
0.33515198786158
-0.00087303869492638
0.33537074205112
-0.00089592915245824
0.3355973642215
-0.00092553030520013
0.33582821832629
-0.00094195478736219
-0.00097497683073654
0.3360680286886
0.31361020707228
-2.239883867943e-05
0.31362274896099
-6.7507612522949e-05
0.31364367453043
-0.00011274493534557
0.31367299587085
-0.00015795489316586
0.31371074737742
-0.00020318072640692
0.31375697551682
-0.00024849487204541
0.31381172327503
-0.00029392421802973
0.31387502116472
-0.00033941809071257
0.3139468813857
-0.00038484384267744
0.314027305119
-0.00043006423065143
0.31411628286199
-0.00047494767050517
0.31421380888187
-0.00051945145795419
0.31431986998247
-0.00056352493264517
0.31443446567925
-0.00060722675369444
0.31455757401039
-0.00065048974849737
0.31468919617313
-0.00069342303609806
0.31482928098881
-0.00073581671048512
0.31497783235213
-0.00077787899406888
0.31513473969424
-0.00081911974409808
0.31530002760735
-0.00086005835663781
0.31547346998914
-0.0008996513871625
0.31565516750735
-0.00093921586195533
0.3158446696551
-0.00097649620326356
0.31604230433316
-0.0010146753296477
0.31624716992302
-0.0010487104483801
0.31646017803259
-0.0010860468403712
0.31667945572728
-0.0011152068835279
0.31690728926601
-0.0011533638805233
0.31713963360071
-0.0011742991578781
-0.0012172273732095
0.31738188410522
0.29600869199144
-2.6389019497317e-05
0.2960207795098
-7.9595183052298e-05
0.2960409402612
-0.00013290573881041
0.29606919916952
-0.0001862138527901
0.29610561162852
-0.0002395932355112
0.29615024364011
-0.00029312693249025
0.29620315228772
-0.00034683291305322
0.29626438097039
-0.00040064681943798
0.29633396028856
-0.00045442320539064
0.29641192081768
-0.00050802480291345
0.2964982928857
-0.0005613197801522
0.29659311919234
-0.00061427780487178
0.29669643700833
-0.00066684278747262
0.29680829775357
-0.00071908753655422
0.29692872613387
-0.00077091816515631
0.29705777199183
-0.00082246892941364
0.297195425387
-0.0008734701400099
0.29734174210884
-0.00092419574954162
0.29749665081881
-0.00097402848697508
0.29766023945451
-0.0010236470248295
0.297832313005
-0.0010717249697123
0.29801305234805
-0.0011199552369608
0.29820201072196
-0.0011654546089687
0.29839962911992
-0.0012122937595551
0.2986049497788
-0.0012540311393063
0.29881907638472
-0.0013001734787176
0.29903995381848
-0.0013360843500049
0.2992702385119
-0.0013836486066779
0.29950542633225
-0.0014094870100662
-0.0014634663492503
0.29975166527448
0.27939504491058
-3.0199452670926e-05
0.27940661941721
-9.1169734546114e-05
0.27942591880294
-0.00015220516918594
0.27945298281351
-0.0002132779072437
0.27948789028661
-0.0002745007513796
0.27953072901138
-0.00033596569888416
0.27958157201058
-0.00039767595255084
0.27964047745384
-0.00045955230177781
0.27970749683861
-0.00052144262785388
0.27978269367685
-0.00058322167759775
0.27986614265501
-0.00064476879337317
0.27995794033279
-0.00070607551651341
0.28005818030056
-0.00076708278782289
0.28016697222848
-0.00082787949599021
0.28028439381346
-0.00088833978053261
0.28041055051689
-0.00094862566238916
0.28054548044498
-0.001008400096762
0.28068929945005
-0.0010680147826968
0.28084198298556
-0.0011267120499536
0.28100369230178
-0.0011853563682125
0.28117427132598
-0.0012423040207478
0.28135399322823
-0.0012996771660322
0.28154242163231
-0.0013538830397943
0.28174012573719
-0.0014099978914214
0.28194609486479
-0.0014600002940507
0.28216164550477
-0.0015157241462792
0.28238453621401
-0.0015589750871716
0.28261782537398
-0.0016169377946884
0.28285653099574
-0.0016481926592066
-0.0017145434501905
0.28310760806734
0.26371381238957
-3.3802429907048e-05
0.26372479162775
-0.00010214901234993
0.26374309653933
-0.00017051012017325
0.26376878284002
-0.00023896424673213
0.26380195381278
-0.00030767176203178
0.26384272002698
-0.00037673195007639
0.26389117146112
-0.0004461274226297
0.26394738236713
-0.00051576324276299
0.26401142705825
-0.00058548735282914
0.26408340472702
-0.00065519937923043
0.26416343795023
-0.00072480204829852
0.26425168139506
-0.00079431899209365
0.2643482896861
-0.0008636911085101
0.26445343595327
-0.00093302579193964
0.26456725637897
-0.0010021602340273
0.26468991817078
-0.0010712874812639
0.26482151393987
-0.0011399958921149
0.2649622270957
-0.0012087279642501
0.26511208765247
-0.001276572631856
0.26527133941536
-0.0013446081559078
0.26543987426398
-0.0014108388937769
0.26561806870937
-0.0014778716357017
0.26580550656992
-0.0015413209244238
0.26600289807185
-0.0016073894174958
0.26620918962736
-0.001666291873662
0.26642592528763
-0.0017324598308562
0.26665068736024
-0.0017837371841683
0.26688695211296
-0.0018532025716882
0.2671292700472
-0.0018905106169818
-0.0019706909891986
0.26738541756103
0.24891265752799
-3.7167299629208e-05
0.2489229435069
-0.00011243502462559
0.24894009929563
-0.00018766594204088
0.24896419559946
-0.00026306058320275
0.24899536006259
-0.00033883625703491
0.24903372606693
-0.00041509798557946
0.24907940065902
-0.00049180204501119
0.2491324745481
-0.00056883716137674
0.24919304581584
-0.00064605864918365
0.24926125091775
-0.00072340450896482
0.24933726257525
-0.00080081373269867
0.24942129634739
-0.00087835279036445
0.24951357119021
-0.00095596597655896
0.24961432740209
-0.001033782028358
0.24972376394884
-0.0011115968045063
0.24984211459624
-0.0011896381518252
0.24996953215696
-0.0012674134753206
0.25010627388202
-0.0013454697113877
0.25025243193344
-0.0014227307048482
0.25040834057149
-0.0015005168152847
0.25057394953235
-0.0015764478756348
0.25074974788878
-0.0016536700130413
0.25093535229882
-0.0017269253552161
0.25113162351645
-0.0018036606559384
0.25133748173518
-0.0018721501131709
0.251554705337
-0.0019496834536285
0.25178072493698
-0.0020097568051549
0.25201943203164
-0.0020919096872396
0.25226495229158
-0.0021360308971603
-0.0022315949766109
0.25252585625722
0.23494218299066
-4.0262757600799e-05
0.23495167677209
-0.00012192883476882
0.23496752410542
-0.00020351330391432
0.23498980947276
-0.00028534597873613
0.23501868401262
-0.00036771082452087
0.23505430336131
-0.00045071736141255
0.23509679144068
-0.00053429015088534
0.23514625544636
-0.00061830119304149
0.23520281730627
-0.00070262053440463
0.23526665090666
-0.00078723813410913
0.23533797970193
-0.00087214255201742
0.2354170809432
-0.00095745405513361
0.23550423941102
-0.0010431244671767
0.23559976433879
-0.001129306978405
0.23570392029032
-0.0012157527776676
0.23581701058154
-0.001302728464215
0.23593925282795
-0.0013896557423354
0.23607098250949
-0.0014771994131807
0.23621236097547
-0.0015641091906183
0.23636381856858
-0.0016519744279265
0.23652537333075
-0.0017380026569866
0.23669763321076
-0.0018259299120909
0.2368802631231
-0.0019095552863395
0.23707427967252
-0.0019976772240843
0.2372786001807
-0.0020764706399078
0.23749523582381
-0.0021663191152949
0.23772150519742
-0.0022360261971961
0.23796169092826
-0.0023320954362266
0.23820957036763
-0.0023839103539844
-0.0024964577834104
0.23847443315573
0.2217557659192
-4.3058909625909e-05
0.22176437612833
-0.00013053906793411
0.22177876421105
-0.0002179014105496
0.2217990279706
-0.00030560976196819
0.22182534061076
-0.0003940234879574
0.22185787831877
-0.00048325509237937
0.2218967804426
-0.00057319229723281
0.22194216950523
-0.00066369027785598
0.22199419075669
-0.0007546418075779
0.22205305487313
-0.00084610227191586
0.22211903527898
-0.00093812297873246
0.22219246963487
-0.0010308884315197
0.22227370815959
-0.0011243630118927
0.2223631283163
-0.0012187271547543
0.22246106144251
-0.0013136859230291
0.22256788086906
-0.0014095479095972
0.22268387256899
-0.0015056474606509
0.22280945174195
-0.0016027786042663
0.222944855688
-0.0016995131544207
0.22309061267416
-0.0017977314316374
0.22324682068319
-0.0018942106832582
0.22341420765125
-0.0019933168972673
0.22359250531215
-0.0020878529641121
0.223782885087
-0.0021880570157247
0.22398429079074
-0.0022778763602559
0.22419895625061
-0.0023809845917168
0.22442414373577
-0.0024612136987268
0.22466448165885
-0.0025724333753625
0.22491351403611
-0.0026329427466384
-0.0027640681119126
0.22518112434812
0.20930940291864
-4.5529897666466e-05
0.20931705052464
-0.00013818669439722
0.20932984732141
-0.00023069822774048
0.20934790342814
-0.00032366588901691
0.20937141207118
-0.00041753215105519
0.20940056765521
-0.00051241069631508
0.2094355229541
-0.00060814761577245
0.20947641389927
-0.00070458124252234
0.20952340706329
-0.00080163499081101
0.20957674723352
-0.00089944246120204
0.20963675560289
-0.00099813136682839
0.2097038273346
-0.0010979601817744
0.20977837586404
-0.0011989115595271
0.20986084356148
-0.001301194870185
0.20995162819805
-0.001404470577239
0.2100511703523
-0.0015090900812676
0.21015982719152
-0.0016143043169496
0.21027809082693
-0.0017210422565503
0.2104062821293
-0.0018277044733269
0.21054502259668
-0.0019364719153656
0.2106945060469
-0.0020436941495251
0.21085557078977
-0.0021543816560145
0.2110280440102
-0.002260326200146
0.21121323550751
-0.0023732485284777
0.21141015759996
-0.0024747984678926
0.21162124114689
-0.0025920681536709
0.21184375961808
-0.0026837321846722
0.2120826227574
-0.0028112965290421
0.21233128831666
-0.0028816083195617
-0.0030328516494549
0.21260007183959
0.19756156199767
-4.7655381722792e-05
0.19756818415128
-0.00014480886536318
0.19757928393588
-0.00024179802973177
0.19759498220265
-0.00033936417315194
0.19761548946363
-0.0004380394292769
0.19764101537822
-0.00053793662811362
0.19767172342874
-0.00063885568338534
0.19770776030595
-0.00074061813681046
0.19774931097932
-0.00084318568112746
0.19779665065102
-0.00094678214982607
0.19785014388475
-0.0010516246173312
0.19791023814499
-0.0011580544587321
0.19797740600083
-0.0012660794318839
0.19805214970827
-0.0013759385940759
0.19813493067177
-0.0014872515569469
0.19822625149983
-0.001600410925436
0.19832654179012
-0.0017145946230903
0.19843636348833
-0.0018308639704596
0.19855612962744
-0.0019474706278664
0.19868654133894
-0.0020668836421404
0.19882791230947
-0.0021850651350353
0.19898116150885
-0.0023076308701912
0.1991462642726
-0.00242542897841
0.19932461554604
-0.002551599816244
0.19951537450725
-0.0026655574431279
0.19972111371553
-0.002797807375775
0.19993919645147
-0.0029018149341336
0.20017474281733
-0.0030468429079889
0.20042129275365
-0.0031281582683219
-0.0033009298068156
0.20068937089773
0.18647304353805
-4.942156391763e-05
0.18647859664483
-0.00015036198721732
0.18648792528837
-0.00025112668844511
0.18650115904781
-0.00035259794782264
0.1865185224461
-0.00045540284276695
0.18654023690001
-0.00055965109728464
0.1865664733414
-0.00066509214001744
0.18659738606483
-0.00077153087557322
0.18663317458461
-0.00087897421621591
0.18667413981553
-0.00098774739613332
0.18672068367323
-0.0010981684903885
0.18677329960062
-0.0012106704015379
0.18683251190878
-0.0013252917553829
0.18689887678363
-0.001442303484287
0.18697291291254
-0.0015612877010998
0.18705518049375
-0.0016826785218482
0.1871461756143
-0.0018055897586608
0.18724652764597
-0.0019312160170439
0.18735673684644
-0.0020576798430067
0.18747758365154
-0.0021877304617456
0.18760949934485
-0.0023169808425467
0.18775348218962
-0.0024516137289434
0.18790966970015
-0.0025816165025986
0.18807951392371
-0.002721444053198
0.18826239576448
-0.0028484392969557
0.18846092833935
-0.0029963399634056
0.18867271757591
-0.0031136041831249
0.18890296122336
-0.0032770865673973
0.18914546287373
-0.0033706599300334
-0.0035661852299211
0.18941071828471
0.17600684885444
-5.0821670810621e-05
0.17601131015701
-0.00015482330314711
0.17601882801787
-0.00025864456281165
0.17602953841658
-0.00036330836014644
0.17604367619882
-0.00046954063862629
0.17606147068688
-0.00057744559907611
0.17608309669569
-0.00068671816258036
0.17610871252697
-0.000797146720736
0.17613852780949
-0.00090878951264633
0.17617286353191
-0.0010220831326069
0.17621215183857
-0.0011374568111409
0.17625692432373
-0.0012554429009116
0.17630774833674
-0.0013761157826369
0.17636522604356
-0.0014997812054454
0.17642992444481
-0.0016259861166411
0.17650245571854
-0.0017552098099152
0.17658337336262
-0.0018865074169475
0.17667337135636
-0.0020212140249088
0.1767730253465
-0.002157333847063
0.17688319963255
-0.0022979047615232
0.17700442345092
-0.0024382046743275
0.17713779533347
-0.002584985624626
0.17728358191238
-0.0027274030942582
0.17744332785348
-0.0028811900066991
0.1776166220456
-0.0030217335010878
0.17780609362175
-0.0031858115512042
0.17800971312332
-0.0033172236959596
0.17823257036851
-0.0034999438233779
0.178468989693
-0.0036070792647826
-0.0038263645655644
0.17872916901764
0.1661280563315
-5.1856033614788e-05
0.16613142427477
-0.00015819125861885
0.16613712677091
-0.00026434707130006
0.1661453037225
-0.00037148532419458
0.16615619649818
-0.00048043342674851
0.1661700382961
-0.00059128740952022
0.16618700411405
-0.00070368399303161
0.16620725242311
-0.00081739504239785
0.1662309982143
-0.00093253531644233
0.16625857622879
-0.0010496611598256
0.16629044100016
-0.0011693215952833
0.16632715320345
-0.0012921551171246
0.16636931364327
-0.0014182762354465
0.16641756070522
-0.0015480282805406
0.16647250022979
-0.0016809256543787
0.16653478698245
-0.0018174965758217
0.16660502312031
-0.001956743567976
0.16668395903209
-0.002100149949791
0.16677223671032
-0.0022456115381816
0.16687079726317
-0.0023964653270388
0.16698025858455
-0.0025476660080168
0.16710181852716
-0.002706545579162
0.1672358573648
-0.0028614419433472
0.16738403288963
-0.0030293655425203
0.167546102449
-0.003183803070952
0.16772475990678
-0.0033644690190065
0.16791832670429
-0.0035107905030538
0.16813171804104
-0.0037133351692399
0.16836003116758
-0.0038353923999995
-0.0040791125475441
0.16861277914015
0.1568037044184
-5.2531772577441e-05
0.1568059976307
-0.00016048448236396
0.15680991384644
-0.00026826329856279
0.15681559431404
-0.00037716580329824
0.15682328308938
-0.00048812221345961
0.15683321325482
-0.00060121758626506
0.1568455563829
-0.00071602713224708
0.15686046727949
-0.00083230595005864
0.15687816147161
-0.00095022951950366
0.1568989808013
-0.0010704805004607
0.15692339393115
-0.0011937347360468
0.15695198083799
-0.0013207420349909
0.15698536551133
-0.0014516609198757
0.15702421173459
-0.0015868745150625
0.15706915388571
-0.0017258678168145
0.15712087848751
-0.0018692211890466
0.15718002641129
-0.0020158915031322
0.15724739284781
-0.0021675163976422
0.15732367755073
-0.0023218962522058
0.15740988471118
-0.0024826724983025
0.15750671545898
-0.0026444967662033
0.15761544963439
-0.0028152797644525
0.15773658648793
-0.0029825788061643
0.15787187089684
-0.0031646499600764
0.15802125639702
-0.0033331885791258
0.15818744671655
-0.0035306593459033
0.15836919892549
-0.0036925427188464
0.15857110447999
-0.0039152407301136
0.15878929324427
-0.0040535811703818
-0.0043220667908043
0.15903224748069
0.14800268139854
-5.2862251377819e-05
0.1480039370809
-0.00016174017592911
0.14800612655398
-0.00027045278274513
0.148009390468
-0.00038042972812973
0.14801397178638
-0.00049270354222552
0.14802009957427
-0.00060734538412933
0.14802793864298
-0.00072386621044478
0.14803763651596
-0.0008420038321298
0.14804940464141
-0.00096199765364371
0.14806358519968
-0.0010846610671773
0.14808065274413
-0.0012108022887494
0.14810119643855
-0.0013412857376578
0.14812585312881
-0.0014763176183732
0.1481553004487
-0.0016163218433343
0.14819019077771
-0.0017607581542761
0.14823123025519
-0.0019102606751039
0.14827908824381
-0.0020637495003053
0.14833459089741
-0.0022230190597315
0.14839848609186
-0.0023857914548967
0.14847182413853
-0.0025560105528614
0.14855538411994
-0.002728056754972
0.14865050157949
-0.0029103972306874
0.14875780809485
-0.0030898853274222
0.14887907892179
-0.0032859207920517
0.14901454366776
-0.0034686533292609
0.14916676858285
-0.0036828842643115
0.14933514849634
-0.0038609226350132
0.14952368751336
-0.0041037797493097
0.14972981836833
-0.0042597120275002
-0.0045529232202366
0.14996067479492
0.13969562089681
-5.2865899037654e-05
0.13969589291325
-0.00016201220452199
0.13969644235988
-0.00027100224126538
0.13969740695189
-0.00038139433127052
0.13969902564454
-0.00049432224500769
0.1397015199871
-0.0006098397358479
0.13970504514857
-0.00072739138003884
0.13970973812964
-0.00084669682041907
0.13971580223763
-0.0009680617680151
0.13972357332906
-0.0010924321644017
0.13973352403677
-0.0012207530017818
0.13974624232117
-0.0013540040271767
0.13976236814961
-0.0014924434518155
0.13978258091064
-0.0016365346094485
0.13980754132505
-0.0017857185738273
0.13983796182109
-0.0019406811764046
0.13987453053925
-0.002100318223715
0.13991808887639
-0.0022665774020403
0.13996942298044
-0.0024371255638275
0.14002960931363
-0.0026161968904872
0.14009950074357
-0.0027979481886734
0.14018045435268
-0.0029913508427026
0.14027325678761
-0.0031826877642347
0.14037962867678
-0.0033922926819199
0.14050017047053
-0.0035891951225513
0.14063716685166
-0.0038198806438178
0.14079080484724
-0.0040145606281009
0.14096435107165
-0.0042773259707022
0.14115669648352
-0.0044520574366128
-0.0047694640293216
0.1413732372947
0.13185480362098
-5.2564803561758e-05
0.13185415693233
-0.00016136553192558
0.13185317405793
-0.0002700193827754
0.13185198742732
-0.00038020771527851
0.13185082847804
-0.00049316330857896
0.1318499084171
-0.00060891968596737
0.13184937071711
-0.00072685368932092
0.13184933867352
-0.00084666478453548
0.1318500035904
-0.00096872669122459
0.13185168867513
-0.0010941172544278
0.13185485813904
-0.0012239224702054
0.13186008836972
-0.001359234261942
0.1318680140547
-0.0015003691406437
0.13187930324526
-0.0016478238038341
0.13189461762956
-0.0018010329619775
0.13191466031466
-0.0019607238654379
0.13194013181341
-0.0021257897263718
0.13197186881832
-0.0022983144107254
0.13201068931791
-0.0024759460668383
0.13205767147318
-0.0026631790485944
0.13211373675645
-0.0028540134739257
0.13218023888176
-0.0030578529688747
0.13225811273416
-0.0032605616161535
0.13234900984706
-0.0034831897927811
0.13245384438942
-0.003694029661276
0.13257465829761
-0.0039406945468018
0.1327123368058
-0.004152239129873
0.13286949827873
-0.0044344874365848
0.13304667538776
-0.0046292345391013
-0.0049697341683086
0.1332469455325
0.12445406491044
-5.1983394534863e-05
0.12445257363548
-0.00015987428265391
0.12445018282956
-0.00026762860323252
0.12444701604096
-0.00037704095151174
0.12444329324529
-0.00048944053525054
0.12443921419757
-0.00060484065792539
0.12443491121248
-0.00072255072131817
0.1244304917395
-0.00084224532638465
0.12442613083149
-0.00096436579613441
0.12442213207737
-0.0010901185117789
0.12441894517958
-0.0012207355828169
0.12441712473084
-0.0013574138229571
0.12441729407317
-0.0015005384923412
0.12442009641351
-0.0016506261534083
0.12442619126671
-0.0018071278243614
0.12443625286646
-0.0019707854743754
0.12445099502762
-0.0021405318966103
0.12447121955201
-0.0023185389439456
0.12449778135473
-0.0025025078778665
0.12453172205599
-0.0026971197573661
0.12457403099797
-0.0028963224222752
0.12462604656393
-0.0031098685396928
0.12468879066089
-0.0033233057161843
0.12476397580117
-0.0035583749340795
0.12485254443846
-0.0037825982974263
0.12495670537173
-0.0040448554767867
0.12507726096587
-0.0042727947190075
0.12521703803304
-0.0045742644978722
0.12537742449623
-0.0047896209969813
-0.0051527006051736
0.12556039093701
0.11746870748102
-5.1147129855891e-05
0.11746644948746
-0.00015761633259465
0.1174627868354
-0.00026396599656582
0.1174578288076
-0.00037208296766055
0.11745177822868
-0.00048338999733682
0.11744482153668
-0.00059788400363128
0.11743708167075
-0.00071481088990548
0.11742865052914
-0.00083381421652333
0.11741968536981
-0.00095540066626825
0.11741046519009
-0.0010808983598062
0.11740141786848
-0.0012116882876985
0.11739306528664
-0.0013490612667978
0.11738601356713
-0.0014934867980016
0.11738086851447
-0.0016454811256413
0.11737828773887
-0.0018045470734889
0.11737889569607
-0.0019713934561238
0.11738343017796
-0.0021450664027714
0.11739261520343
-0.0023277239931901
0.11740737159932
-0.0025172642967512
0.11742862695204
-0.0027183751318732
0.11745749267995
-0.0029251881703628
0.11749519436514
-0.0031475702429526
0.11754287138479
-0.0033709827515229
0.11760232330713
-0.0036178268693636
0.1176743175111
-0.0038545925115272
0.11776189174474
-0.0041324297176296
0.11786438443774
-0.0043752874168094
0.11798695132624
-0.0046968313897629
0.11812710636345
-0.004929776037965
-0.0053196024537149
0.11829400820539
0.11087542699648
-5.0089281835059e-05
0.11087248906259
-0.00015467846687031
0.11086769759902
-0.00025917460396918
0.11086114274516
-0.0003655281833688
0.11085301275164
-0.00047526007018167
0.11084348027211
-0.00058835158682963
0.11083265690437
-0.00070398758144418
0.11082061566473
-0.00082177303323858
0.11080749533015
-0.00094228038568881
0.11079354940754
-0.0010669524894561
0.11077917783071
-0.0011973167618502
0.11076486312315
-0.0013347466093684
0.11075118836368
-0.0014798120880508
0.11073871448056
-0.001633007291655
0.11072809384682
-0.0017939264884986
0.11071988517166
-0.0019631848293579
0.11071485896382
-0.0021400402427102
0.11071361824202
-0.0023264833183676
0.11071719784849
-0.0025208439488835
0.11072629366338
-0.0027274709906635
0.11074229759655
-0.002941192144987
0.11076602760041
-0.003171300285389
0.11079912132446
-0.0034040765108109
0.11084285825425
-0.003661563830869
0.11089845684926
-0.0039101911345028
0.11096929982893
-0.00420327272146
0.1110535366176
-0.0044595242261975
0.11116092724152
-0.0048042220322494
0.11127688490703
-0.0050457337219989
-0.0054720100077637
0.11142929243766
0.10465222710752
-4.885049967018e-05
0.10464872869914
-0.0001511801528583
0.10464296696239
-0.00025341296337913
0.10463500661587
-0.00035756793122212
0.10462503661725
-0.00046529016268727
0.10461322972938
-0.00057654478654468
0.1045996819064
-0.00069043984280092
0.10458444735316
-0.00080653856166116
0.10456764675151
-0.0009254798636523
0.10454949807403
-0.0010488038900705
0.10453036055194
-0.0011781793167814
0.10451067513574
-0.0013150612693845
0.104490997622
-0.0014601346499361
0.10447184993811
-0.0016138596828445
0.10445387344357
-0.0017759500685158
0.10443756487734
-0.0019468763369764
0.10442371391615
-0.0021261893544775
0.10441278713176
-0.0023155566055208
0.1044059401092
-0.0025139969959501
0.10440355467456
-0.0027250856228351
0.10440746047951
-0.0029450980133007
0.10441769856847
-0.0031815384334434
0.10443712933856
-0.0034235073355706
0.10446509129093
-0.0036895258331726
0.10450563741502
-0.0039507373037853
0.10455797030986
-0.0042556056564187
0.10462570044112
-0.004527254393085
0.10471526262571
-0.0048937842493705
0.10481494035099
-0.0051454114794797
-0.0056073202859139
0.10495025058887
0.098778301340718
-4.7433670661664e-05
0.098774373646867
-0.00014725257043512
0.098767797376158
-0.00024683680475064
0.098758637495143
-0.00034840816032024
0.098747061005664
-0.00045371378042408
0.098733287298474
-0.00056277118364167
0.098717361494376
-0.00067451414047004
0.098699327787837
-0.00078850495501015
0.098679317781734
-0.00090546995611426
0.098657502492675
-0.0010269886987507
0.098634185325308
-0.0011548622465788
0.098609759733206
-0.0012906357740895
0.098584736145001
-0.0014351111581505
0.098559599009942
-0.0015887226438582
0.098534962877247
-0.0017513140313143
0.098511290424466
-0.0019232039789735
0.098489351806713
-0.0021042508302426
0.098469531134942
-0.0022957360254565
0.098453003461565
-0.0024974694113722
0.098439934129558
-0.0027120163756899
0.098432420189522
-0.0029375841529113
0.098429837124195
-0.0031789554418964
0.098436266588747
-0.0034299368675827
0.098448677089545
-0.0037019363951988
0.098475592031258
-0.0039776523003434
0.098507704289179
-0.0042877179626296
0.098562681587021
-0.0045822317332775
0.098618832772639
-0.0049499354740279
0.098707427743441
-0.0052340064906942
0.098857675681988
-0.0057575682743396
0.39461527072086
0.004649260175441
0.390124899825
0.0044903708650953
0.38579790597196
0.0043269938223297
0.38163866118718
0.0041592447537259
0.37765139932072
0.0039872618349823
0.37384021448677
0.0038111848018433
0.3702090515196
0.0036311629345077
0.36676169610798
0.0034473553782901
0.3635017670898
0.0032599289843156
0.36043271179141
0.0030690552639045
0.35755780306238
0.002874908694094
0.35488013664461
0.0026776663823243
0.35240262757112
0.0024775090377019
0.35012800625777
0.0022746212771624
0.34805881435504
0.0020691918663568
0.34619740092092
0.0018614133974845
0.34454591855948
0.0016514823247478
0.34310631982489
0.001439598697779
0.34188035369831
0.0012259660898536
0.3408695622095
0.0010107914520684
0.3400752768059
0.00079428536704645
0.33949861351442
0.00057666325499474
0.33914046333865
0.00035815013952623
0.3390014502785
0.00013901302399968
0.33908207734959
-8.0627106965811e-05
0.3393827797612
-0.00030070244741107
0.33990345865949
-0.00052067893381552
0.34064391122676
-0.00074045260273256
0.34160372108433
-0.00095980989278043
0.34278224609933
-0.0011785250501579
0.34417861693013