/*--------------------------------*- C++ -*----------------------------------*\
| =========                 |                                                 |
| \\      /  F ield         | OpenFOAM: The Open Source CFD Toolbox           |
|  \\    /   O peration     | Version:  2112                                  |
|   \\  /    A nd           | Website:  www.openfoam.com                      |
|    \\/     M anipulation  |                                                 |
\*---------------------------------------------------------------------------*/
FoamFile
{
    version     2.0;
    format      ascii;
    arch        "LSB;label=32;scalar=64";
    class       surfaceScalarField;
    location    "8.2";
    object      phi;
}
// * * * * * * * * * * * * * * * * * * * * * * * * * * * * * * * * * * * * * //

dimensions      [0 3 -1 0 0 0 0];

oriented        oriented;

internalField   nonuniform List<scalar> 
43645
(
0.39512385972806
-4.9866058309729e-06
0.39513880446088
-1.4944663138415e-05
0.39516351910585
-2.4714569593433e-05
0.39519780775309
-3.428856936325e-05
0.3952415307956
-4.3722964300521e-05
0.39529458906086
-5.3058187813318e-05
0.3953568991359
-6.2309999069105e-05
0.39542837533105
-7.1476120830683e-05
0.39550891559199
-8.0540188530603e-05
0.39559840326675
-8.9487604177772e-05
0.39569670329684
-9.8299961496335e-05
0.395803676919
-0.00010697355539527
0.39591917273603
-0.0001154957522345
0.39604305196465
-0.00012387916557378
0.39617515235273
-0.00013210032690378
0.39631532569881
-0.00014017328650769
0.39646334982689
-0.00014802407021858
0.3966190282785
-0.00015567839511737
0.39678203535518
-0.00016300702168711
0.39695217882984
-0.00017014342075834
0.39712908246023
-0.00017690357771316
0.39731274252993
-0.00018366001784812
0.39750278248523
-0.00019003990438532
0.3976995880987
-0.00019680556310252
0.3979026273658
-0.00020303921742541
0.39811287583972
-0.00021024842452246
0.39832918291727
-0.00021630702864198
0.39855357546248
-0.00022439249701387
0.39878340047888
-0.00022982496947659
-0.00023952869110932
0.39902292921756
0.37294723634512
-9.6681063870364e-06
0.37296136860821
-2.9076814207331e-05
0.37298489814101
-4.8243988343229e-05
0.3730176598881
-6.7050202536283e-05
0.37305952737533
-8.5590339104496e-05
0.37311040689511
-0.00010393759715465
0.37317021746284
-0.00012212045878063
0.37323887547718
-0.00014013402952784
0.37331628232536
-0.00015794693369177
0.37340232651048
-0.00017553168872703
0.37349687974942
-0.00019285310254404
0.37359981064546
-0.00020990435597922
0.37371097559774
-0.00022666061170375
0.3738302425944
-0.00024314607173095
0.37395745592009
-0.00025931356458585
0.37409247106807
-0.00027518834855107
0.37423506922757
-0.00029062214602934
0.37438505168657
-0.00030566077216924
0.37454209180792
-0.00032004706298389
0.37470598715064
-0.00033403868480761
0.37487635861556
-0.00034727496549392
0.37505318413288
-0.000360485459018
0.37523608883576
-0.00037294453230798
0.37542543022004
-0.00038614687304337
0.37562069177838
-0.00039830070231141
0.37582280336189
-0.00041235993489508
0.37603065995863
-0.00042416355288361
0.37624621028959
-0.0004399427565236
0.37646691447732
-0.00045052908855803
-0.0004695349407479
0.37669692079733
0.3520155368203
-1.4307290674838e-05
0.35202945390905
-4.2993785291667e-05
0.35205255593594
-7.134589728455e-05
0.35208471611892
-9.9210268876041e-05
0.35212583098027
-0.00012670508621792
0.35217581095864
-0.00015391746385214
0.35223456913152
-0.00018087852295487
0.35230201521763
-0.00020758000968951
0.35237804802723
-0.00023397964043891
0.3524625586687
-0.00026004223012476
0.3525554251665
-0.00028571950340715
0.3526565246884
-0.00031100378367551
0.35276572238804
-0.00033585822018997
0.35288289467139
-0.00036031826646804
0.35300789224079
-0.00038431104820494
0.35314057572513
-0.00040787174931719
0.35328072798253
-0.00043077432232143
0.35342815043825
-0.00045308314855263
0.35358251099537
-0.00047440754281087
0.35374360100943
-0.00049512862286085
0.35391102644449
-0.00051470032612484
0.35408475421101
-0.00053421315190147
0.35426438337799
-0.0005525736267821
0.35445026226071
-0.00057202568359951
0.35464183125802
-0.00058986962820252
0.35484002616502
-0.00061055477041989
0.35504365901565
-0.00062779633244978
0.35525472719465
-0.00065101086508454
0.3554705034337
-0.00066630525986755
-0.00069431588275391
0.35569528444592
0.33225863966176
-1.8902894775281e-05
0.33227240443606
-5.6758455693256e-05
0.33229527104816
-9.4212405016395e-05
0.33232714742521
-0.00013108654256239
0.33236794904003
-0.00016750659970469
0.33241758829328
-0.00020355661794277
0.33247597020278
-0.00023926033591319
0.33254299537487
-0.00027460508764078
0.33261855794669
-0.00030954212089721
0.33270255063136
-0.00034403482591896
0.33279485782715
-0.00037802661316141
0.33289536625754
-0.00041151213046975
0.33300395093079
-0.00044444281262865
0.33312049772944
-0.00047686498656028
0.33324486379523
-0.00050867703801287
0.33337691439046
-0.00053992227052055
0.33351643176264
-0.00057029162270823
0.33366321513895
-0.00059986645461404
0.33381692231333
-0.00062811464878497
0.3339773354336
-0.00065554167581316
0.33414403892694
-0.00068140375358197
0.33431698711067
-0.00070716127038613
0.33449574352401
-0.00073132997590839
0.3346806504215
-0.00075693251712773
0.33487108928946
-0.00078030843289014
0.33506801819299
-0.00080748361056901
0.33527013744839
-0.00082991552489063
0.33547954794874
-0.00086042130305895
0.33569328126245
-0.00088003851366595
-0.00091698232468659
0.33591594776674
0.31361063041404
-2.3475840934802e-05
0.31362430370391
-7.0431652332038e-05
0.31364704590851
-0.00011695451629348
0.31367880975732
-0.00016285029922012
0.31371953312442
-0.00020822987676587
0.31376912986638
-0.00025315327206292
0.31382749544865
-0.00029762583295774
0.31389452051519
-0.00034163007137713
0.31397009484328
-0.00038511636896927
0.31405411428964
-0.0004280541947196
0.31414647219187
-0.00047038444066756
0.3142470682553
-0.00051210812154939
0.31435579135914
-0.00055316584684564
0.31447254131814
-0.00059361487810046
0.31459718616812
-0.00063332182299866
0.31472959990382
-0.00067233594301176
0.31486956708133
-0.00071025873911325
0.31501688631891
-0.00074718563241181
0.31517120475167
-0.00078243302342457
0.31533229394782
-0.00081663081468939
0.31549971326899
-0.00084882301866281
0.31567340301561
-0.00088085096128082
0.31585288634129
-0.00091081324662716
0.31603850215826
-0.00094254827904073
0.31622956451574
-0.00097137073569986
0.31642706517784
-0.0010049842175156
0.31662956958058
-0.0010324198725657
0.31683931125957
-0.0010701629270934
0.31705301413361
-0.0010937413346423
-0.0011396493610126
0.31727568122589
0.29600925734424
-2.803124390396e-05
0.29602285251397
-8.4026735991371e-05
0.29604549489483
-0.00013959681112035
0.29607718791401
-0.00019454323346103
0.29611789564944
-0.00024893752919734
0.29616753491251
-0.00030279245408365
0.29622599207839
-0.00035608292015538
0.29629314860155
-0.0004087865179825
0.29636889172055
-0.00046085941396438
0.29645312339405
-0.00051228579640736
0.29654574984713
-0.00056301082454433
0.29664668836823
-0.00061304657559117
0.29675584683115
-0.00066232424524138
0.29687314423506
-0.00071091221944515
0.29699846493631
-0.00075864246401671
0.29713169665498
-0.00080556760307769
0.29727263109117
-0.00085119311870249
0.29742107004924
-0.0008956245351213
0.29757665351304
-0.0009380164334803
0.29773914477636
-0.00097912202505088
0.29790808026429
-0.0010177584548539
0.29808338791255
-0.0010561585581598
0.29826455091453
-0.001091976198055
0.29845190749022
-0.0011299048041461
0.29864470013875
-0.0011641633341381
0.2988439610905
-0.0012042451188066
0.29904810375527
-0.0012365624871087
0.29925951497055
-0.0012815740923596
0.29947456228088
-0.0013087885968091
-0.0013637820872179
0.29969869505812
0.27939576211012
-3.2558761439474e-05
0.27940924796744
-9.751251659378e-05
0.27943174126241
-0.00016209002959585
0.27946330006155
-0.00022610195719091
0.27950391743688
-0.00028955483098048
0.27955351487641
-0.00035238982187197
0.27961197098751
-0.0004145389617548
0.27967915967561
-0.00047597513854183
0.27975496815147
-0.00053666782468611
0.2798393079612
-0.00059662554300235
0.27993210274489
-0.00065580554757225
0.28003329261947
-0.00071423639144481
0.28014281051136
-0.00077184208079487
0.28026060093317
-0.00082870258667002
0.28038657155772
-0.00088461303614799
0.28052063054271
-0.0009396265370986
0.28066258406078
-0.00099314658765026
0.28081224342126
-0.0010452838475208
0.28096924852162
-0.0010950214872278
0.28113335970452
-0.0011432331619586
0.28130409677524
-0.0011884954806553
0.28148137952066
-0.0012334412588319
0.28166465595958
-0.0012752525929174
0.28185426727983
-0.0013195160801268
0.28204938524853
-0.0013592812589166
0.28225108848862
-0.0014059483144562
0.28245762937086
-0.001443103324998
0.28267156470368
-0.0014955093808196
0.28288887311637
-0.0015260969666593
-0.0015904108975096
0.28311550197254
0.26371468721723
-3.7036462558433e-05
0.26372799840009
-0.00011082362963187
0.26375023597212
-0.00018432753203334
0.26378151530608
-0.00025738122246673
0.26382186046425
-0.00032989992207661
0.26387119924594
-0.0004017285379736
0.26392940426133
-0.00047274391348426
0.26399634414022
-0.00054291495540831
0.26407190918958
-0.00061223281410425
0.2641560244963
-0.00068074079147251
0.26424863606086
-0.0007484170560656
0.26434971242592
-0.00081531270211474
0.26445921811753
-0.00088134772014895
0.26457712999864
-0.0009466144170601
0.26470338688379
-0.0010108698725698
0.26483792499096
-0.0010741645968185
0.26498057381458
-0.0011357953655768
0.26513116212107
-0.0011958721092703
0.26528933931308
-0.0012531986359355
0.26545487047279
-0.0013087642789761
0.26562726853201
-0.0013608934982899
0.265806451852
-0.0014126245375016
0.26599184196982
-0.0014606426702139
0.26618378880203
-0.0015114628717553
0.26638139889763
-0.0015568913144733
0.26658580390065
-0.0016103532771115
0.26679509265484
-0.0016523920391917
0.26701200604351
-0.0017124227296789
0.26723211159751
-0.0017462024824318
-0.0018201914418765
0.2674618921829
0.24891369044052
-4.1434154564747e-05
0.24892673700034
-0.00012387012765515
0.24894857075967
-0.00020616122981673
0.24897936570411
-0.00028817610614638
0.24901917813826
-0.00036971229687124
0.24906794373812
-0.00045049407973805
0.2491255312126
-0.00053033133155454
0.24919180654777
-0.00060919023553076
0.24926666648046
-0.00068709269359184
0.24935005355707
-0.00076412781630046
0.24944194091893
-0.00084030436806016
0.24954233086095
-0.00091570259568479
0.24965122587978
-0.00099024269242035
0.24976864189523
-0.0010640303872407
0.24989455687226
-0.0011367848061133
0.25002894304815
-0.0012085507303022
0.25017166298156
-0.0012785152581452
0.25032257196058
-0.0013467810482399
0.2504813403897
-0.0014119670263125
0.25064774773856
-0.0014751715895853
0.25082131266431
-0.0015344583868056
0.25100196125611
-0.0015932730922308
0.25118910090022
-0.0016477822780079
0.2513830979768
-0.0017054599119113
0.25158300384318
-0.0017567971449604
0.2517900105575
-0.0018173599552206
0.25200204772257
-0.00186442916844
0.25222205121299
-0.0019324261844544
0.2524451682062
-0.0019693194414518
-0.0020534651212263
0.25267844192246
0.23494336988073
-4.5716422567154e-05
0.23495604614952
-0.00013654634072313
0.23497730153502
-0.00022741655977746
0.23500736855898
-0.0003182430751637
0.23504633619783
-0.00040867988193132
0.23509414930393
-0.00049830713301421
0.23515067480797
-0.00058685678415006
0.23521577869096
-0.00067429406813278
0.23528936728385
-0.0007606812376248
0.23537140408978
-0.00084616457449341
0.23546189359664
-0.00093079382880814
0.23556087648436
-0.0010146854384271
0.23566839894612
-0.0010977651108521
0.23578452204555
-0.0011801534443918
0.23590927049888
-0.0012615332187557
0.23604266026518
-0.0013419404568076
0.23618459687445
-0.00142045182906
0.2363349716529
-0.001497155789033
0.23649348856082
-0.0015704838978237
0.23665995241617
-0.0016416354089842
0.23683390224575
-0.0017084081814728
0.23701528288061
-0.0017746536923978
0.2372035028005
-0.001836002164046
0.23739895456701
-0.0019009116445838
0.23760064874794
-0.0019584912927473
0.23780984572231
-0.0020265568963121
0.23802432781758
-0.0020789112310525
0.23824723344293
-0.0021553317775075
0.23847329585193
-0.0021953818196748
-0.002290298677087
0.238710129441
0.22175709884137
-4.9845427037822e-05
0.22176929179544
-0.00014873924515054
0.22178978189686
-0.00024790661167483
0.22181885854633
-0.00034731967554831
0.2218566428577
-0.00044646414517703
0.22190308974617
-0.00054475397406975
0.22195806634384
-0.00064183333554716
0.22202144106205
-0.00073766874086378
0.22209313255874
-0.00083237269009318
0.22217312807338
-0.00092616004577565
0.22226146672195
-0.0010191324353827
0.22235823111224
-0.0011114497875908
0.22246351571267
-0.0012030496715558
0.22257743165381
-0.0012940693466403
0.22270005695613
-0.0013841584835376
0.22283145810718
-0.0014733415710509
0.22297159291863
-0.0015605866049636
0.22312039800742
-0.0016459608428354
0.22327762363775
-0.0017277094942946
0.22344311148769
-0.0018071232254543
0.22361643673951
-0.0018817334007774
0.22379757523141
-0.0019557921519727
0.22398595421365
-0.0020243811147878
0.22418200329285
-0.0020969606922983
0.22438471154205
-0.0021611995111882
0.2245954151584
-0.0022372604818289
0.22481177244192
-0.0022952684844234
0.22503712120085
-0.0023806805067214
0.22526581526287
-0.0024240758534733
-0.002530515510797
0.22550603212711
0.20931087000874
-5.378344342004e-05
0.20932246665345
-0.00016033584492571
0.20934200478304
-0.00026744469635369
0.20936982733299
-0.00037514218086698
0.20940608599124
-0.00048272275953851
0.20945074614069
-0.00058941408012842
0.20950367682178
-0.00069476397413764
0.20956475091606
-0.00079874279318849
0.20963390145977
-0.00090152319286763
0.20971114121196
-0.0010033997576427
0.20979654594562
-0.0011045371298416
0.20989024229199
-0.001205146095398
0.20999237601228
-0.0013051833544568
0.21010311163716
-0.0014048049347661
0.21022258547432
-0.0015036322851227
0.21035091993556
-0.0016016759972874
0.2104881331906
-0.0016977998261195
0.21063421548774
-0.0017920431065736
0.21078897553569
-0.0018824695098932
0.21095230313092
-0.0019704507886869
0.21112382569629
-0.0020532559351011
0.2113035623794
-0.0021355288042545
0.21149097854361
-0.0022117972490095
0.21168655088689
-0.0022925330057166
0.21188927251944
-0.002363921114646
0.21210055540218
-0.0024485433355585
0.21231798545576
-0.002512698509782
0.21254505883328
-0.0026077538565728
0.21277590236888
-0.0026549193629297
-0.0027736775390724
0.21301906442542
0.19756314839089
-5.7495265962709e-05
0.19757404245287
-0.0001712298660761
0.1975924535104
-0.00028585571299777
0.19761877258914
-0.00040146121885355
0.19765317943948
-0.00051712956970393
0.19769564985014
-0.00063188445093728
0.19774605608283
-0.00074517016768003
0.1978042769715
-0.00085696364307598
0.19787026113739
-0.00096750732078897
0.19794404750624
-0.0010771860889308
0.19802574910189
-0.0011862386888501
0.19811553702196
-0.0012949339792755
0.198213609506
-0.0014032558032673
0.19832018593634
-0.0015113813303355
0.19843546394862
-0.0016189102636393
0.19855962545241
-0.0017258374677422
0.19869275527556
-0.0018309296169219
0.19883490413361
-0.0019341919326758
0.19898595005415
-0.0020335153994316
0.19914584120093
-0.0021303419047818
0.19931427304777
-0.0022216877521524
0.19949131949456
-0.0023125752214939
0.19967650543319
-0.0023969831589188
0.19987036021928
-0.0024863877632393
0.20007191592397
-0.002565476791564
0.20028263032243
-0.0026592577063905
0.20050013014243
-0.0027301983029755
0.20072776843301
-0.002835392120953
0.20096044784107
-0.0028875987462815
-0.0030190525584257
0.20120582288717
0.18647473230539
-6.0950166022898e-05
0.1864848311588
-0.00018132868170445
0.18650196077312
-0.00030298528938571
0.18652655391719
-0.00042605432500341
0.18655881526944
-0.00054939088448873
0.18659873050861
-0.00067179965282744
0.18664617595622
-0.00079261557858694
0.1867010372195
-0.00091182486988348
0.18676327879605
-0.0010297488615235
0.18683296522074
-0.001146872478093
0.18691024586627
-0.0012635192995929
0.18699533504748
-0.0013800231260032
0.18708848272638
-0.0014964034484927
0.18718996255304
-0.0016128611236319
0.18730003432593
-0.0017289820040134
0.18741894088073
-0.0018447439903605
0.18754683777765
-0.0019588264825326
0.18768384098095
-0.0020711951049995
0.18782990679948
-0.0021795811878813
0.1879850501788
-0.0022854852543297
0.18814904960336
-0.0023856871478279
0.18832204341044
-0.0024855689999706
0.18850364013208
-0.0025785798528134
0.18869442445448
-0.0026771720581068
0.18889352125384
-0.0027645735642297
0.18910238711746
-0.0028681235435333
0.1893188767593
-0.0029466879191854
0.18954598763828
-0.0030625029749563
0.18977935650044
-0.0031209675849089
-0.0032656771169223
0.19002598108446
0.1760086209706
-6.4122343597029e-05
0.17601785109469
-0.00019055877029571
0.17603357252591
-0.00031870668487384
0.17605625378205
-0.00044873554537016
0.17608612088436
-0.0005792579514063
0.17612316834068
-0.00070884707389319
0.17616727688815
-0.00083672409131096
0.17621833926379
-0.00096288721097908
0.1762763354217
-0.0010877449854743
0.17634135385895
-0.0012118908816073
0.17641357789484
-0.0013357433023826
0.17649326209108
-0.0014597072893681
0.17658070538255
-0.0015838467077563
0.17667623303891
-0.0017083887480065
0.1767801655166
-0.0018329144504278
0.17689280567884
-0.001957384121569
0.17701438133783
-0.002080402111261
0.17714507602398
-0.0022018897611851
0.17728493077737
-0.0023194359121312
0.17743403320317
-0.0024345876513361
0.17759225753683
-0.0025439114535578
0.17775981367168
-0.0026531251072427
0.17793641585922
-0.0027551820136452
0.17812270342756
-0.0028634596000435
0.17831794325902
-0.0029598133701395
0.17852354934391
-0.0030737296031627
0.17873769751521
-0.0031608360660526
0.17896308297529
-0.003287888411251
0.17919567695291
-0.003353561540071
-0.0035127270354395
0.1794427268959
0.16612989210834
-6.6992440469763e-05
0.16613819955404
-0.00019886618203459
0.1661524172274
-0.00033292432401931
0.16617304287125
-0.00046936115498949
0.16620031997881
-0.00060653502512127
0.16623425063721
-0.00074277769865109
0.16627471994905
-0.00087719337007676
0.16632162740587
-0.0010097946349972
0.16637496695295
-0.001141084500391
0.1664348484414
-0.0012717723381688
0.16650148559604
-0.0014023804257557
0.16657516882503
-0.0015333904873069
0.1666562413773
-0.001664919229562
0.1667450755334
-0.0017972228738213
0.1668420485336
-0.0019298874209367
0.16694752009036
-0.0020628556488377
0.16706178902775
-0.0021946710198302
0.16718510618977
-0.0023252068946685
0.16731760080769
-0.0024519305023004
0.16745943630255
-0.002576423118833
0.16761059239001
-0.0026950675145463
0.16777135537836
-0.0028138880695656
0.16794156320658
-0.0029253898167593
0.16812191160933
-0.0030438079781357
0.16831183896642
-0.0031497407034329
0.16851273009847
-0.0032746207118032
0.16872304100345
-0.0033711469484099
0.16894539653149
-0.003510243917264
0.16917586659335
-0.0035840315810192
-0.0037588223291826
0.1694219619101
0.1568055841786
-6.954789859948e-05
0.15681293514913
-0.00020621711957305
0.15682558637476
-0.00034557551648485
0.15684405795408
-0.00048783270130249
0.15686860681875
-0.00063108385735669
0.15689924115594
-0.00077341200386738
0.15693585003546
-0.00091380221841404
0.15697833894529
-0.001052283514184
0.15702671372794
-0.0011894592532374
0.15708110199946
-0.0013261605803738
0.15714174290916
-0.0014630213068686
0.15720895720715
-0.001600604757013
0.15728312633869
-0.0017390883334144
0.15736466345213
-0.0018787599597351
0.15745399638692
-0.0020192203287326
0.15755153656459
-0.0021603957996856
0.15765764960266
-0.0023007840316626
0.15777265105614
-0.0024402083221981
0.15789675826595
-0.0025760376869198
0.1580302108202
-0.0027098756483489
0.15817310009047
-0.002837956760999
0.15832579090634
-0.0029665788622147
0.15848825906101
-0.0030878579491996
0.15866126226148
-0.0032168111569762
0.15884441830662
-0.0033328967278636
0.1590391350975
-0.0034693374824566
0.1592440736178
-0.0035760854492039
0.15946194875332
-0.0037281190337618
0.15968882039288
-0.0038109032022961
-0.0040022852380303
0.15993228332223
0.14800458593408
-7.1782872533699e-05
0.1480109666427
-0.00021259779535038
0.14802202178282
-0.00035663062383471
0.1480382867626
-0.00050409764889137
0.14806002765875
-0.0006528247223524
0.14808725714702
-0.00080064146196666
0.14811986771867
-0.00094641276117743
0.14815776994692
-0.0010901857146151
0.14820097906266
-0.0012326683424296
0.14824963639598
-0.001374817888009
0.14830400066864
-0.0015173855548498
0.14836441633647
-0.0016610204006746
0.14843129520468
-0.0018059671781236
0.148505084187
-0.0019525489187914
0.14858625346631
-0.002100389585259
0.14867525973605
-0.002249402046814
0.14877252805802
-0.0023980523315563
0.14887843470637
-0.002546114948764
0.14899328078255
-0.0026908837420591
0.14911738036992
-0.0028339752152279
0.1492509375616
-0.0029715139331596
0.14939439452874
-0.003110035810602
0.14954787407371
-0.0032413374765266
0.14971220239908
-0.0033811394654943
0.14988717727107
-0.0035078715840369
0.15007428456723
-0.0036564447633884
0.15027231896718
-0.0037741198345941
0.15048424028473
-0.003940040337035
0.15070590624294
-0.00403256914643
-0.0042418449379028
0.15094546595931
0.13969753214273
-7.3697724013735e-05
0.13970294767854
-0.0002180132965369
0.13971240853399
-0.00036609144493871
0.13972645853731
-0.00051814761918478
0.13974536860911
-0.00067173476301854
0.13976915411061
-0.00082442693422227
0.13979771021401
-0.00097496883745697
0.13983095147619
-0.0011234269515511
0.13986889971104
-0.0012706165539701
0.13991170572981
-0.0014176238849241
0.13995964163465
-0.0015653214392247
0.14001306874259
-0.0017144474889935
0.14007242049178
-0.0018653189085103
0.14013816938883
-0.0020182977973841
0.14021081766803
-0.0021730378464997
0.14029086002433
-0.0023294443853423
0.14037877021987
-0.0024859625098244
0.14047498087184
-0.0026423255838024
0.14057986748201
-0.0027957703360465
0.14069381750761
-0.0029479252253131
0.14081714157772
-0.0030948379888363
0.14095035700985
-0.0032432512292732
0.14109373356798
-0.0033847140224931
0.14124816822825
-0.0035355741146622
0.1414136317448
-0.0036733350906897
0.14159176622492
-0.0038345792344037
0.14178139375907
-0.0039637473602881
0.14198592489383
-0.0041445714633852
0.14220080080938
-0.0042474450531311
-0.0044756343625353
0.14243459024555
0.13185670495166
-7.5297909916413e-05
0.13186117654206
-0.00022248484578932
0.13186907299418
-0.00037398785595857
0.13188093953652
-0.00053001412257643
0.13189704765303
-0.00068784284366699
0.13191741406795
-0.00084479331644758
0.13194193633337
-0.00099949107347803
0.13197053172642
-0.0011520223181413
0.13200322532728
-0.0013033101311324
0.13204017246167
-0.0014545709977865
0.13208165205177
-0.0016068010096651
0.13212803507066
-0.0017608304894365
0.13217976797234
-0.0019170517927658
0.13223734039065
-0.0020758701987875
0.13230127593604
-0.0022369733755319
0.13237209886353
-0.0024002672967456
0.1324503194409
-0.0025641830716424
0.13253642114409
-0.0027284272718722
0.13263083978845
-0.0028901889661423
0.13273403646625
-0.0030511218897259
0.13284641154223
-0.00320721305272
0.13296856409929
-0.0033654037755467
0.13310088894037
-0.0035170388544004
0.13324436518102
-0.0036790503476036
0.1333990958956
-0.0038280657991032
0.13356694768462
-0.0040024310184181
0.13374673455761
-0.0041435342290852
0.13394242243734
-0.004340259338868
0.13414922519051
-0.0044542478010736
-0.0047017121085627
0.13437530294479
0.1244559412019
-7.6592724716003e-05
0.12445950320028
-0.00022604678739665
0.12446588938406
-0.00038037398164148
0.12447563791944
-0.00053976260239854
0.12448901673973
-0.00070122161263373
0.12450604375915
-0.00086182028911555
0.12452661962663
-0.0010200668987663
0.12455066330553
-0.0011760659588925
0.12457820008386
-0.0013308468749386
0.12460938461295
-0.0014857554951811
0.12464449628651
-0.0016419126538706
0.12468390752993
-0.0018002417050913
0.12472806926265
-0.0019612134989775
0.12477747740724
-0.0021252783176197
0.124832667462
-0.0022921634052387
0.12489418136971
-0.0024617811798733
0.12496255769936
-0.0026325593774067
0.1250383206574
-0.0028041902067421
0.12512195785134
-0.0029738261380534
0.12521399725746
-0.0031431612751183
0.12531490995858
-0.0033081257348625
0.12542538487898
-0.0034758786788602
0.12554590392907
-0.0036375578896172
0.12567755874601
-0.0038107051518242
0.12582052352828
-0.003971030570842
0.12597686268552
-0.0041587701669677
0.12614535708809
-0.0043120286243351
0.12633062355158
-0.0045255257953194
0.12652809162838
-0.0046517158698158
-0.0049194204525392
0.12674579998391
0.11747054831168
-7.7597187230961e-05
0.11747324726166
-0.0002287456520316
0.11747819905788
-0.00038532568929306
0.11748592344962
-0.00054748690797161
0.11749668237516
-0.00071198045697376
0.11751049632768
-0.00087563416602432
0.11752727037743
-0.0010368408784562
0.11754692333988
-0.0011957188561734
0.1175694770909
-0.0013534005650097
0.11759508046648
-0.0015113588131428
0.11762400876559
-0.0016708408980053
0.11765662900911
-0.0018328618955544
0.11769339072924
-0.0019979751675425
0.11773478415575
-0.0021666716936311
0.11778134988827
-0.0023387290882375
0.11783362850576
-0.0025140597487071
0.11789218608514
-0.0026911169091981
0.11795756093711
-0.0028695650124012
0.11803030643763
-0.0030465715939348
0.11811097792415
-0.0032238327191057
0.11820014277609
-0.0033972905468487
0.11829852291167
-0.0035742587774527
0.11840671437117
-0.0037457493153162
0.1185258862471
-0.0039298769972308
0.11865631610017
-0.0041014603965989
0.11880027229811
-0.0043027263406604
0.118956138685
-0.0044678949894639
0.11912945732526
-0.0046988444152286
0.11931421986407
-0.004836478388105
-0.0051313918574233
0.11952619129372
0.11087723077045
-7.8342954768783e-05
0.1108791370186
-0.00023065177556246
0.11088275364383
-0.00038894218517234
0.1108885690714
-0.00055330220859369
0.11089684702771
-0.00072025829174596
0.1109076146213
-0.00088640164424875
0.1109207818392
-0.001050007987006
0.11093626456918
-0.0012112014819807
0.11095407519978
-0.0013712110958293
0.11097435099081
-0.0015316345077796
0.11099735810225
-0.0016938479158132
0.11102345206241
-0.0018589557641162
0.1110530766707
-0.0020275996859696
0.11108670797436
-0.0022003029087696
0.11112489019367
-0.002376911220448
0.11116814684268
-0.0025573163119323
0.11121708169369
-0.0027400516761686
0.11127220908914
-0.0029246923257546
0.11133418548637
-0.0031085479118052
0.11140349769135
-0.0032931448479108
0.11148092165909
-0.0034747144425228
0.1115669865707
-0.0036603236214239
0.11166267387613
-0.0038414365580068
0.11176876281769
-0.0040359658807501
0.11188623565571
-0.0042189331814595
0.11201697139041
-0.0044334620269319
0.11215992184768
-0.0046108454028243
0.11232097161707
-0.0048598941439917
0.11248912033567
-0.0050046270677822
-0.0053387783225191
0.11269650684447
0.10465399941892
-7.8876261389365e-05
0.10465523268738
-0.00023188487774214
0.10465763530972
-0.00039134463812474
0.10466166716588
-0.00055733389840513
0.10466760833081
-0.00072619929585713
0.10467550870226
-0.00089430186098198
0.10468528560592
-0.0010597847416503
0.10469684682471
-0.0012227625566204
0.10471019554927
-0.0013845596801553
0.10472545661757
-0.0015468954389406
0.10474288029242
-0.0017112714559704
0.10476280403723
-0.0018788793762714
0.10478565460231
-0.0020504501201316
0.10481188177138
-0.0022265299486575
0.10484201804501
-0.0024070473665789
0.10487656091718
-0.0025918590586538
0.10491615368173
-0.002779644317585
0.10496128406014
-0.0029698225841618
0.10501274141389
-0.0031600051493875
0.10507087981978
-0.003351283142754
0.1051367835749
-0.0035406180925043
0.10521050924385
-0.0037340491921361
0.10529383129728
-0.0039247585200623
0.10538623633339
-0.004128370832451
0.10549076632837
-0.0043234630988113
0.10560621649701
-0.0045489121251628
0.10573691762449
-0.0047415464667399
0.10588425034367
-0.005007226805491
0.10604562262982
-0.0051659993001294
-0.0055303461199385
0.10623719048747
0.098780014480694
-7.9172297825371e-05
0.098780704413835
-0.00023257461701571
0.098781977026335
-0.00039261705541815
0.098784388796445
-0.00055974547660982
0.098788174007025
-0.00072998431953283
0.098793450594841
-0.00089957826700474
0.098800153492774
-0.0010664874623536
0.098808179159321
-0.0012307880494982
0.098817509267311
-0.0013938896172433
0.098828240229758
-0.0015576262324578
0.098840596087658
-0.0017236271466155
0.098854895549776
-0.0018931786724554
0.098871543325583
-0.0020670977314802
0.098890956959476
-0.0022459434195023
0.098913630335693
-0.0024297205816392
0.098940013393482
-0.0026182419573847
0.098970745449029
-0.0028103762171243
0.099006294220899
-0.0030053712038774
0.099047577247405
-0.0032012880293246
0.099094898755111
-0.0033986045109073
0.099149695382577
-0.0035954145893162
0.099211598350204
-0.0037959520387048
0.099283341780189
-0.0039965018390689
0.099362741817921
-0.0042077707687713
0.099455886368726
-0.004416607557868
0.099555803451044
-0.0046488291257043
0.099676307523994
-0.0048620504677699
0.099800826333518
-0.0051317455506579
0.099957653990914
-0.005322826896417
0.10015977849329
-0.0057324705554251
0.39436805238949
0.0046548768755743
0.38987439920607
0.0044936532296587
0.38554682101325
0.0043275782384103
0.38139007161746
0.0041567494415289
0.37740876817233
0.0039813034910183
0.37360736898407
0.0038013992348006
0.36999015208785
0.0036172169431829
0.36656119549438
0.0034289566412595
0.363324359823
0.0032368357196654
0.36028327630262
0.003041083569574
0.35744134089097
0.0028419354613401
0.35480171328036
0.0026396276612312
0.35236731948128
0.0024343938501731
0.35014085662766
0.0022264629056385
0.34812479924126
0.0020160574388399
0.34632140568519
0.0018033936094398
0.34473272399608
0.0015886817428339
0.34336059676802
0.0013721272826914
0.34220666457794
0.0011539322450317
0.34127236864895
0.00093429598485902
0.34055895079681
0.00071341790831757
0.34006745080159
0.00049150005235549
0.33979868744347
0.00026876341558088
0.33975309021147
4.5597290474198e-05
0.33993161937152
-0.00017852910122237
0.34033432489586
-0.00040270546444866
0.34096123880212
-0.00062691384599323
0.34181222958341
-0.00085099071995541
0.34288695755943
-0.0010747279143899
0.34418486531204
-0.001297907690012
0.34570517066965