/*--------------------------------*- C++ -*----------------------------------*\
| =========                 |                                                 |
| \\      /  F ield         | OpenFOAM: The Open Source CFD Toolbox           |
|  \\    /   O peration     | Version:  2112                                  |
|   \\  /    A nd           | Website:  www.openfoam.com                      |
|    \\/     M anipulation  |                                                 |
\*---------------------------------------------------------------------------*/
FoamFile
{
    version     2.0;
    format      ascii;
    arch        "LSB;label=32;scalar=64";
    class       surfaceScalarField;
    location    "19.6";
    object      phi;
}
// * * * * * * * * * * * * * * * * * * * * * * * * * * * * * * * * * * * * * //

dimensions      [0 3 -1 0 0 0 0];

oriented        oriented;

internalField   nonuniform List<scalar> 
43645
(
0.39512380473739
-4.93173359351e-06
0.39513857975424
-1.4775089245988e-05
0.39516321168128
-2.4632005387036e-05
0.39519768004694
-3.4468446659426e-05
0.39524194651736
-4.4266551788749e-05
0.3952959591544
-5.4012717636199e-05
0.39535965413601
-6.3695060687734e-05
0.39543296195647
-7.3307897846796e-05
0.39551580903292
-8.2847151877278e-05
0.39560811968549
-9.2310726132351e-05
0.39570980682147
-0.00010168720747966
0.39582077370926
-0.00011096695742949
0.39594090050837
-0.00012012686671567
0.39607006030389
-0.00012915986133488
0.39620809727772
-0.00013803703768491
0.39635486671969
-0.00014676950420158
0.39651018250591
-0.00015531584664951
0.39667390292007
-0.00016372047317668
0.39684580357225
-0.00017190070962656
0.39702576877928
-0.00017996526332183
0.39721349893591
-0.00018773021163079
0.39740894934331
-0.00019545046151997
0.39761166531413
-0.00020271602390616
0.39782178642058
-0.00021012115895028
0.39803853242699
-0.00021674605812001
0.39826248872991
-0.00022395635431596
0.39849215879936
-0.00022967012026046
0.3987291586003
-0.0002369998509731
0.39897038006502
-0.00024122151338785
-0.00024936966150168
0.39921974967723
0.37294717548982
-9.552589382896e-06
0.3729611141472
-2.871386281482e-05
0.37298451661578
-4.8034592293683e-05
0.37301736519851
-6.7317147645103e-05
0.37305962211014
-8.652358013473e-05
0.37311123873626
-0.00010562945845622
0.37317215747427
-0.00012461391090592
0.37324231673175
-0.00014346726510986
0.37332165090396
-0.0001621814311668
0.37341009097295
-0.00018075089970877
0.37350755511336
-0.00019915144970617
0.37361395106116
-0.00021736300457309
0.37372916405165
-0.0002353399538127
0.37385307318476
-0.0002530690886799
0.3739855305626
-0.00027049450717941
0.37412640012951
-0.00028763916063355
0.37427550649011
-0.0003044222944419
0.37443271796528
-0.00032093203372211
0.37459782286978
-0.00033700569750539
0.37477071491623
-0.00035285739171799
0.37495110880134
-0.00036812417703754
0.37513896604104
-0.00038330778046633
0.37533384976916
-0.00039759982997039
0.375535899808
-0.00041217127505193
0.37574436444926
-0.00042521077564187
0.37595981855672
-0.00043941053765235
0.37618082182395
-0.00045067346262463
0.37640895700403
-0.00046513510504048
0.37664123730684
-0.00047350188722521
-0.00048966231532888
0.3768815298879
0.3520154688557
-1.412403487596e-05
0.3520292041469
-4.2449276149363e-05
0.35205214746012
-7.0978028006156e-05
0.35208428802239
-9.945783107833e-05
0.35212559611681
-0.00012783179326687
0.35217602550294
-0.00015605896065774
0.35223552005782
-0.00018410857881387
0.35230402250565
-0.00021196982313589
0.35238147342101
-0.00023963245353744
0.35246780934379
-0.00026708692663758
0.35256295184829
-0.00029429405513831
0.35266681105184
-0.00032122230624811
0.35277927472327
-0.00034780372020775
0.35290022687404
-0.0003740213318075
0.35302952610086
-0.00039979382341918
0.35316704616883
-0.00042515931573218
0.35331262129034
-0.0004499975004953
0.35346613309702
-0.00047444392309044
0.3536273792995
-0.0004982519805265
0.35379626902876
-0.00052174720015637
0.35397252163465
-0.00054437686040824
0.35415611686396
-0.00056690308640174
0.35434661179433
-0.0005880948357065
0.35454417370561
-0.00060973326128759
0.35474802378875
-0.00062906093287822
0.35495878947665
-0.0006501762996474
0.35517495565837
-0.00066683971791585
0.35539821496347
-0.00068839448299813
0.35562539028594
-0.000700677279725
-0.00072483847025729
0.35586056636834
0.33225856244454
-1.8642620236119e-05
0.33227214531589
-5.6032255199829e-05
0.33229480283073
-9.3635651092178e-05
0.33232651604424
-0.00013117115183032
0.33236725534152
-0.00016857119570916
0.33241697532963
-0.00020577905169161
0.33247562219423
-0.00024275554365084
0.3325431441782
-0.00027949190487195
0.33261948885983
-0.00031597723007617
0.33270459857083
-0.00035219672999249
0.33279839778782
-0.0003880933615457
0.33290079831811
-0.00042362292345302
0.33301168977768
-0.00045869526380507
0.33313096125537
-0.00049329289119868
0.33325847831545
-0.00052731096251501
0.33339412631288
-0.00056080739016663
0.33353775036981
-0.00059362163207822
0.33368924844728
-0.00062594207361818
0.33384842847806
-0.00065743208240402
0.33401521889773
-0.0006885376897811
0.33418934203354
-0.00071850006462797
0.33437080119998
-0.0007483623205617
0.33455914049825
-0.00077643420054172
0.3347545648861
-0.00080515771542964
0.33495625212357
-0.00083074823582738
0.3351649076187
-0.00085883186032787
0.33537890900288
-0.0008808411671255
0.33560012676798
-0.00090961231249859
0.33582513337976
-0.00092568395329651
-0.00095813346432945
0.33605842830952
0.31361053990381
-2.3125234768227e-05
0.31362402390047
-6.9516348521111e-05
0.31364649079776
-0.00011610264518809
0.31367791869504
-0.00016259914474351
0.3137182793787
-0.0002089319728261
0.3137675280852
-0.00025502784939231
0.31382561383566
-0.00030084138259391
0.31389249217671
-0.0003463703319208
0.31396812002352
-0.00039160515999413
0.31405244764861
-0.000436524435663
0.314145404075
-0.00048104986556125
0.31424690427288
-0.00052512319650783
0.31435684125954
-0.00056863232278431
0.31447511135984
-0.00061156306159968
0.31460158960812
-0.00065378927830106
0.31473617631037
-0.00069539415807035
0.31487873075112
-0.00073617613625926
0.31502917156207
-0.00077638294660373
0.3151873200733
-0.00081558065390666
0.31535312906723
-0.00085434674309967
0.31552632557785
-0.00089169663331544
0.31570694255382
-0.00092897935422652
0.31589450957787
-0.00096400128141145
0.31608927890386
-0.00099992709831455
0.31629037709523
-0.0010318464836306
0.31649860663719
-0.0010670614591674
0.31671221509839
-0.0010944496850673
0.31693328965238
-0.0011306869230967
0.31715808802785
-0.0011504823834113
-0.0011916484396218
0.31739160294554
0.2960091509115
-2.7574370224572e-05
0.29602254505913
-8.2910585450472e-05
0.29604483442897
-0.00013839210431197
0.29607599654849
-0.00019376135245305
0.29611600712195
-0.00024894263246746
0.2961648238176
-0.00030384462920813
0.29622240029354
-0.00035841794022978
0.2962887018107
-0.00041267192857802
0.29636369750732
-0.00046660093344968
0.29644734852219
-0.00052017552510575
0.2965395911564
-0.00057329257159576
0.29664034623879
-0.00062587834851364
0.29674951311225
-0.0006777992631789
0.29686699878915
-0.00072904880340728
0.29699269173044
-0.00077948228203555
0.29712651178388
-0.00082921427225972
0.29726833722604
-0.00087800163702962
0.29741811277826
-0.00092615855614166
0.29757567822483
-0.00097314615606574
0.29774101654232
-0.0010196851153418
0.29791386376401
-0.001064543908426
0.29809428867346
-0.0011094043167202
0.29828180851791
-0.0011515211779735
0.29847673031507
-0.0011948489476067
0.29867812694949
-0.0012332431696082
0.2988869097446
-0.0012758443062083
0.29910118307116
-0.0013087230632705
0.29932327453243
-0.0013527784358022
0.29954908999453
-0.0013762978950301
-0.0014267253471525
0.29978416684958
0.27939563757832
-3.1977503628953e-05
0.27940890597415
-9.6179060970714e-05
0.27943095812913
-0.00016044433878255
0.27946177277569
-0.00022457607738963
0.27950133165669
-0.00028850158990996
0.27954959696744
-0.000352110014529
0.2796065293062
-0.00041535035120831
0.27967210637949
-0.00047824907203956
0.27974631265156
-0.00054080727316464
0.27982912337175
-0.00060298631085221
0.27992048545804
-0.00066465472084059
0.28002032909722
-0.00072572204860528
0.28012856387939
-0.00078603410374049
0.2802451119018
-0.00084559688237093
0.280369880088
-0.00090425052247894
0.28050281329488
-0.00096214753186822
0.28064381481058
-0.0010190032034747
0.28079286165463
-0.0010752054498343
0.28094981862855
-0.0011301031780294
0.28111470539294
-0.0011845719271282
0.28128727347483
-0.0012371120365298
0.28146763388383
-0.0012897647717401
0.28165529717493
-0.0013391845143266
0.2818506317387
-0.0013901835568305
0.28205266048149
-0.0014352719574505
0.28226241191051
-0.0014855957808307
0.28247784613196
-0.0015241573301685
0.28270154608188
-0.0015764784312233
0.28292905255136
-0.001603804408455
-0.0016641554217066
0.28316648257882
0.26371454264749
-3.6310769560127e-05
0.26372761464734
-0.00010925113341633
0.26374931362474
-0.00018214338854308
0.26377962133793
-0.00025488386200731
0.26381852744621
-0.00032740776793128
0.26386600067363
-0.0003995833101389
0.26392201088301
-0.00047136062673218
0.26398655094361
-0.00054278919707891
0.26405962373168
-0.00061388012344969
0.26414122191901
-0.00068458455861622
0.26423130666054
-0.00075473952047843
0.26432982141956
-0.00082423686398648
0.26443669054043
-0.00089290327867048
0.26455185613838
-0.00096076253277312
0.26467524930821
-0.0010276437426131
0.26480684587662
-0.0010937441492432
0.26494658098263
-0.0011587383565491
0.2650944706298
-0.001223095143062
0.26525041242197
-0.0012860450146884
0.26541446966733
-0.00134862921634
0.26558641791233
-0.0014090603241507
0.26576641713918
-0.0014697640409428
0.26595398039498
-0.0015267478115864
0.26614954349305
-0.001585746696429
0.26635208902906
-0.0016378175343757
0.26656276805166
-0.0016962748446966
0.26677940582226
-0.0017407951416236
0.26700484585986
-0.0018019185095259
0.26723426979184
-0.0018332283795263
-0.0019042694070412
0.26747438373518
0.24891352424444
-4.0542384635285e-05
0.24892630429436
-0.00012203124765219
0.24894749417664
-0.00020333333487487
0.24897708033766
-0.000284470086276
0.2490150618927
-0.00036538938472813
0.24906141585332
-0.00044593733118495
0.24911612346808
-0.00052606830012571
0.24917919521536
-0.00060586100153746
0.24925065518061
-0.00068534014390477
0.24933051654351
-0.00076444597522153
0.24941875826708
-0.00084298129567633
0.24951534105464
-0.00092081970168797
0.24962020868081
-0.00099777095293258
0.2497333283027
-0.0010738822013795
0.2498546611069
-0.0011489765916045
0.24998421988303
-0.0012233029690228
0.25012197882617
-0.001296497341624
0.25026799965082
-0.001369116008803
0.25042222135343
-0.0014402667569536
0.25058475793884
-0.0015111658408931
0.25075541919346
-0.0015797216167762
0.25093442073001
-0.0016487656153281
0.25112129042052
-0.0017136175390892
0.25131653670699
-0.0017809930200086
0.25151911728895
-0.0018403981528531
0.2517303074032
-0.0019074649958131
0.25194781727199
-0.0019583050468376
0.25217474603314
-0.0020288473069738
0.25240594235332
-0.0020644247345306
-0.0021470133619892
0.25264868627062
0.23494318092104
-4.4635800356114e-05
0.23495555778031
-0.00013440816494161
0.23497605823215
-0.00022383384453522
0.23500467456677
-0.00031308647809446
0.23504141641997
-0.00040213129389167
0.23508627049123
-0.00049079145739441
0.23513923116728
-0.00057902902961177
0.2352003284664
-0.00066695835298958
0.23526960988928
-0.00075462161744047
0.23534711164552
-0.00084194778092856
0.23543283365479
-0.0009287033526304
0.23552675745796
-0.0010147435513489
0.23562885065112
-0.0010998641907732
0.23573911006377
-0.001184141657596
0.23585753259444
-0.0012673991641141
0.2359841735054
-0.0013499439208598
0.23611905309238
-0.0014313769678981
0.2362622850389
-0.001512347993876
0.23641385862315
-0.0015918403783815
0.23657394519813
-0.0016712524525669
0.23674240021702
-0.0017481766711989
0.23691950114585
-0.0018258665794597
0.23710480585695
-0.0018989222845615
0.23729889925597
-0.0019750864533899
0.2375007350203
-0.0020422339507883
0.2377117104353
-0.0021184404445603
0.23792945117109
-0.0021760458156988
0.23815729675548
-0.0022566929241101
0.23838981051123
-0.0022969385214737
-0.0023920096061098
0.23863480672162
0.22175688662042
-4.8552679418034e-05
0.22176874199214
-0.00014626358836945
0.22178836297681
-0.00024345488076106
0.22181574784538
-0.00034047139776991
0.22185091716102
-0.00043730065959565
0.22189386825628
-0.00053374260195323
0.22194460987596
-0.00062977069734939
0.22200319274162
-0.0007255412658466
0.2220696890878
-0.00082111800942079
0.22214415978643
-0.00091641852445675
0.22222662808386
-0.0010111716934475
0.22231709921294
-0.0011052147228805
0.22241556829286
-0.0011983333115993
0.22252206564572
-0.0012906390504896
0.22263662875931
-0.0013819623162201
0.22275935993548
-0.0014726751347807
0.22289033195893
-0.001562349027699
0.22302971576853
-0.0016517318392277
0.22317755957514
-0.0017396842194802
0.2233340978136
-0.0018277907251202
0.22349924372709
-0.001913322617698
0.22367334181373
-0.00199996469891
0.22385599743902
-0.0020815779417395
0.22404787411901
-0.00216696316526
0.22424794776801
-0.0022423076308558
0.22445773096868
-0.0023282236763771
0.22467480645455
-0.0023931213319739
0.22490272760474
-0.0024846141042856
0.22513584307969
-0.0025300540249007
-0.0026386025398808
0.22538243598261
0.20931063519428
-5.2255967608838e-05
0.20932185279667
-0.00015748123754264
0.20934040809825
-0.0002620102290619
0.20936630455708
-0.00036636790304151
0.20939957361979
-0.00047056976791942
0.20944022366948
-0.00057439269672523
0.20948827827453
-0.00067782534649224
0.20954380909279
-0.00078107212760723
0.20960691339558
-0.00088422235456433
0.20967767733161
-0.00098718250220389
0.20975614887865
-0.0010896432809429
0.20984235881431
-0.0011914246983241
0.20993633247394
-0.0012923070096879
0.21003813632455
-0.0013924429389084
0.21014785216621
-0.0014916781943606
0.21026563252375
-0.0015904555282044
0.210391607909
-0.0016883244475714
0.21052601030861
-0.001786134272952
0.21066895470615
-0.0018826286499635
0.21082074283434
-0.0019795788858791
0.21098135789637
-0.0020739377112249
0.21115121499493
-0.0021698218287306
0.21132998634799
-0.0022603493250989
0.21151841361082
-0.0023553904582779
0.21171552663941
-0.0024394206887335
0.21192294067796
-0.0025356377441497
0.21213825069069
-0.0026084313730466
0.21236517947953
-0.0027115429209152
0.21259795947664
-0.0027628340482447
-0.0028858977640476
0.21284525467242
0.19756289156121
-5.5711038526623e-05
0.197573366839
-0.00016795655778779
0.19759068575936
-0.00027932919191561
0.19761485703252
-0.00039053921854926
0.19764592249123
-0.00050163526833661
0.19768390135735
-0.00061237160420423
0.19772883187257
-0.0007227559022661
0.19778080613087
-0.00083304642608212
0.19783994580442
-0.00094336206737124
0.19790636179572
-0.0010535985323261
0.19798012706757
-0.0011634085905838
0.19806129859298
-0.0012725962610598
0.19814993335736
-0.0013809418102876
0.19824613514918
-0.0014886447664833
0.19835003230176
-0.0015955753815748
0.19846182897732
-0.0017022522379479
0.19858171708012
-0.0018082125834273
0.19870999148618
-0.0019144087116798
0.19884684047508
-0.0020194776704457
0.19899263521672
-0.0021253736587629
0.19914744048528
-0.0022287430100067
0.19931174305679
-0.0023341244302113
0.19948530243281
-0.0024339087301282
0.19966893381797
-0.0025390218722713
0.19986175884484
-0.0026322457435151
0.20006547163199
-0.0027393505590541
0.20027776021287
-0.0028207199807278
0.20050244179702
-0.0029362245312627
0.20073378545128
-0.0029941777271482
-0.0031327764611211
0.20098066412165
0.1864744544769
-5.8888181948486e-05
0.18648409812118
-0.00017760024128753
0.18650003341477
-0.00029526452486207
0.18652227430397
-0.00041278014708585
0.18655087230385
-0.00053023330704821
0.18658585681867
-0.00064735615764997
0.18662727982771
-0.00076417894929869
0.18667525223946
-0.00088101887557891
0.18672991836293
-0.00099802822782961
0.18679141238253
-0.0011150925886506
0.18685983145143
-0.0012318276953477
0.1869352580428
-0.0013480228880042
0.18701778079386
-0.0014634645960036
0.18710754034872
-0.0015784043556867
0.18720471208687
-0.0016927471531126
0.18730955119012
-0.001807091374262
0.18742231278136
-0.001920974206739
0.18754335414057
-0.0020354501026234
0.18767294173371
-0.0021490652942992
0.18781151575701
-0.0022639477124547
0.18795923326755
-0.0023764605499167
0.18811665081839
-0.0024915420101011
0.18828363654023
-0.0026008944800262
0.18846106888357
-0.0027164542433926
0.18864820527067
-0.0028193821574188
0.18884676924507
-0.0029379145599612
0.18905467552158
-0.0030286262827569
0.18927555354972
-0.0031571025842197
0.18950443940743
-0.0032230636081607
-0.003377932738434
0.18974959565947
0.176008324312
-6.1763768018594e-05
0.17601706482747
-0.00018634079353811
0.17603149851002
-0.00030969824440619
0.17605164408931
-0.00043292576341836
0.17607756154423
-0.00055615079858839
0.17610928928515
-0.00067908393505362
0.17614689147248
-0.00080178117254932
0.17619049548343
-0.00092462292226497
0.17624026552247
-0.0010477983019465
0.17629635626441
-0.0011711833654655
0.17635888700774
-0.0012943584728349
0.17642796400718
-0.0014170999214078
0.17650370621537
-0.0015392068373981
0.17658628890518
-0.0016609870785024
0.17667593323963
-0.0017823915197638
0.17677294261288
-0.0019041007794921
0.17687763524006
-0.0020256668650242
0.1769904276316
-0.0021482425249873
0.17711166756391
-0.0022703052564746
0.17724186069001
-0.0023941408680758
0.17738126602167
-0.0025158659100782
0.1775305045261
-0.0026407805426328
0.1776895745959
-0.0027599645768782
0.17785940501729
-0.002886284691432
0.1780394377196
-0.0029994148853429
0.17823137824384
-0.0031298551093963
0.1784335010351
-0.0032307490981816
0.17864910433921
-0.0033727059117464
0.17887409616099
-0.0034480554519277
-0.003619810886792
0.17911597428542
0.1661295790793
-6.4320899706502e-05
0.16613736495748
-0.0001941267068227
0.16615021192459
-0.00032254524687452
0.16616814273083
-0.00045085660505424
0.16619122426767
-0.0005792323703963
0.16621950231994
-0.00070736202210719
0.16625305110738
-0.00083532999416417
0.16629201144869
-0.00096358329750532
0.16633656392339
-0.0010923508098917
0.16638688014087
-0.001221499615952
0.16644309846702
-0.001350576831308
0.16650534574111
-0.0014793472276619
0.16657376858673
-0.001607629714524
0.16664857335808
-0.0017357918812332
0.1667300239768
-0.001863842169186
0.16681846706009
-0.001992543893336
0.16691428182488
-0.0021214816596034
0.16701793792863
-0.0022518986582663
0.1671298658238
-0.0023822331802599
0.16725062907675
-0.0025149041492361
0.16738059756365
-0.0026458344241381
0.16752044611842
-0.0027806291240211
0.16767032511866
-0.0029098436026008
0.16783119792705
-0.0030471575247276
0.16800272341962
-0.0031709404016627
0.16818659001154
-0.0033137217245001
0.16838140228801
-0.0034255613967413
0.16859033195124
-0.0035816355962901
0.16880972994814
-0.0036674534688521
-0.003856938118384
0.16904685715778
0.15680525740593
-6.6549646927408e-05
0.15681205792453
-0.00020092725947074
0.15682326744958
-0.00033375480612286
0.15683891171698
-0.00046650090652454
0.15685906265581
-0.00059938334270147
0.15688377150358
-0.00073207090292776
0.15691312001225
-0.00086467853506232
0.15694725894888
-0.00099772226586207
0.15698638118366
-0.0011314730755139
0.15703067109174
-0.0012657895544628
0.15708028222381
-0.0014001879930414
0.15713535805021
-0.0015344230834723
0.157196068782
-0.0016683404751025
0.15726264680263
-0.0018023699305546
0.15733539423138
-0.0019365896260443
0.15741469440107
-0.0020718440910279
0.15750098309794
-0.0022077703838135
0.15759477483425
-0.0023456904216448
0.15769658177947
-0.0024840401516875
0.15780701395918
-0.0026253363546519
0.1579265604997
-0.0027653809892617
0.15805593131956
-0.0029099999677684
0.15819545594655
-0.003049368252189
0.15834610193866
-0.0031978035386237
0.15850778658999
-0.0033326250734603
0.15868218356716
-0.0034881187213443
0.1588681513012
-0.0036115291493069
0.15906899955405
-0.0037824838668582
0.15928110626616
-0.0038795601976518
-0.0040876302121385
0.15951179834132
0.14800424826826
-6.8447016077982e-05
0.14801005338229
-0.00020673240731558
0.1480196085812
-0.00034331003877579
0.148032941537
-0.00047983389551646
0.14805012731189
-0.0006165691497142
0.1480712204597
-0.0007531640819183
0.1480963074521
-0.00088976555734468
0.14812554523176
-0.0010269600743803
0.14815913449394
-0.0011650623652706
0.14819726792221
-0.001303923009506
0.14824010983159
-0.0014430299281807
0.14828781593517
-0.0015821292123793
0.14834057487578
-0.0017210994403606
0.14839863941793
-0.0018604344971974
0.14846234287507
-0.0020002931071692
0.14853209835758
-0.0021415995974357
0.14860839050271
-0.0022840625522489
0.14869177063476
-0.0024290705767273
0.14878282613965
-0.0025750956787527
0.14888220376898
-0.0027247140055618
0.14899051201953
-0.0028736892601796
0.14910847911087
-0.0030279670785358
0.14923663347664
-0.0031775226359049
0.14937590551899
-0.0033370755977719
0.14952654307635
-0.0034832626460706
0.14969011591061
-0.0036516915697493
0.1498658291486
-0.0037872424001704
0.15005718735771
-0.0039738420880421
0.15026033936734
-0.0040827122186993
-0.0043099201374154
0.15048262927934
0.13969718653576
-7.0016323784272e-05
0.13970200547641
-0.00021155138353952
0.13970992135919
-0.00035122595685061
0.13972096262878
-0.00049087519911001
0.1397352053818
-0.00063081193481585
0.13975270533182
-0.00077066406217962
0.13977355088921
-0.00091061114282175
0.13979790136632
-0.001051310577749
0.13982596066172
-0.0011931216849939
0.13985792515837
-0.0013358875291013
0.13989396519559
-0.0014790699869596
0.13993424420224
-0.0016224082398424
0.13997896335733
-0.0017658186154612
0.14002839004877
-0.0019098612083987
0.14008288011945
-0.0020547831971124
0.14014286966134
-0.0022015891584851
0.1402088801268
-0.0023500730363397
0.14028149444246
-0.0025016849107059
0.14036135915965
-0.0026549604133954
0.14044915793243
-0.0028125127950364
0.14054559710551
-0.0029701284486122
0.14065143364405
-0.0031338036311811
0.14076736637751
-0.0032934553817142
0.14089430080871
-0.0034640100397523
0.14103282513803
-0.0036217869842819
0.14118429558932
-0.0038031620284125
0.14134862724929
-0.003951574066006
0.14152879131345
-0.0041540061572591
0.14172164570547
-0.0042755666155904
-0.0045224086711038
0.1419341342325
0.13185635421565
-7.1265845899121e-05
0.13186021271316
-0.00021540992321689
0.13186653262506
-0.00035754591090762
0.13187534173611
-0.00049968435017778
0.13188671488133
-0.00064218511694719
0.13190070666988
-0.00078465588449029
0.1319174046527
-0.00092730915609059
0.13193696675741
-0.0010708727100156
0.13195959585781
-0.001215750810187
0.13198548769662
-0.001361779390632
0.13201481414223
-0.0015083964534382
0.13204774148969
-0.001655335607065
0.1320844773738
-0.0018025545183568
0.13212529733839
-0.0019506811913581
0.13217057071355
-0.0021000565901324
0.13222074926297
-0.002251767725588
0.13227637776324
-0.0024057015537458
0.13233806554715
-0.0025633727113371
0.13240649702756
-0.0027233919095633
0.13248239811573
-0.0028884138979612
0.1325665357969
-0.0030542661429517
0.1326597287273
-0.0032269965730874
0.13276277418305
-0.0033965008467975
0.13287663774637
-0.0035778736102881
0.13300210165926
-0.0037472509019779
0.13314044084065
-0.0039415012125072
0.13329224895494
-0.0041033821811051
0.13345960258336
-0.0043213597855509
0.13364164504855
-0.0044576090808428
-0.0047233609780836
0.13384259735352
0.12445558771785
-7.2207271674314e-05
0.12445852352709
-0.00021834579051097
0.12446331401165
-0.00036233645492556
0.12446998357618
-0.00050635397165753
0.12447860381407
-0.00065080540752394
0.12448922694124
-0.00079527905979495
0.12450193639972
-0.00094001865812042
0.12451688385441
-0.0010858202042631
0.12453426709355
-0.0012331340852766
0.12455427765597
-0.0013817899862484
0.12457708587609
-0.0015312047044768
0.12460285607838
-0.0016811058388002
0.1246317972593
-0.0018314957275296
0.12466418501744
-0.0019830689771248
0.12470039480454
-0.0021362664042265
0.12474088322382
-0.0022922561714892
0.12478620840586
-0.0024510267617091
0.12483699441333
-0.0026141587440371
0.12489394757199
-0.0027803450922155
0.124957832021
-0.0029522983695366
0.12502944128731
-0.0031258754297359
0.12510968708909
-0.003307242393043
0.12519937438889
-0.0034861881619305
0.12529967887789
-0.0036781781117278
0.12541129720449
-0.0038588692378373
0.12553586756212
-0.0040660715764789
0.12567381297554
-0.0042413275983025
0.12582757063222
-0.0044751174446777
0.12599729851488
-0.004627336966196
-0.0049119731401418
0.12618591067156
0.11747019340602
-7.2856967945937e-05
0.11747225510506
-0.00022040757667111
0.1174756025682
-0.0003656840085498
0.11748025001269
-0.00051100150427474
0.11748626569356
-0.00065682117154394
0.11749370164686
-0.00080271509066141
0.11750263460072
-0.00094895168399432
0.11751320441917
-0.0010963900898854
0.11752559852953
-0.0012455282586176
0.1175400005334
-0.0013961920498715
0.11755657733269
-0.0015477815609465
0.11757548694515
-0.0017000155066536
0.11759693604205
-0.0018529448784284
0.11762119109037
-0.0020073240784964
0.11764862988871
-0.0021637052547505
0.11767969864872
-0.002323324982911
0.11771496788807
-0.0024862960514637
0.11775505061437
-0.0026542415194823
0.11780068117595
-0.0028259757012037
0.11785262206744
-0.0030042393061727
0.11791170713523
-0.0031849605398036
0.1179788980415
-0.0033744333381674
0.11805498982538
-0.0035622799808845
0.11814143570896
-0.003764624026296
0.11823861972832
-0.0039560532840814
0.11834919081646
-0.0041766426873622
0.11847197159495
-0.0043641083960226
0.11861214600233
-0.0046152918690119
0.118765609478
-0.0047808004587128
-0.0050906991239269
0.11894433544053
0.11087687074695
-7.3242919294038e-05
0.11087812666798
-0.00022166362473801
0.11088014067922
-0.00036769815170527
0.11088290650694
-0.00051376746157405
0.11088649279884
-0.00066040758760887
0.1108909539798
-0.00080717638963465
0.11089635686045
-0.00095435467665685
0.11090282827367
-0.0011028616100084
0.11091054261331
-0.0012532427008273
0.11091967330994
-0.0014053228457916
0.11093038216251
-0.0015584905101227
0.11094281663261
-0.0017124500715045
0.11095717605292
-0.0018673043918258
0.11097370853878
-0.0020238566562796
0.11099279108605
-0.0021827878925977
0.11101484359115
-0.0023453775774378
0.11104045458076
-0.0025119071287868
0.11107019129678
-0.0026839783213576
0.11110484942101
-0.0028606339084804
0.11114510519723
-0.0030444951621855
0.11119194200743
-0.0032317974253691
0.1112461603414
-0.0034286517427536
0.11130881525099
-0.0036249349555706
0.11138116458126
-0.0038369734163698
0.11146379997764
-0.0040386887345785
0.11155992641625
-0.0042727691747003
0.11166719228788
-0.0044713743111924
0.11179451229875
-0.0047426119200307
0.11192796402655
-0.0049142522255417
-0.0052615805303412
0.11209884538686
0.10465362394355
-7.3401037025247e-05
0.10465418319243
-0.00022222304282766
0.10465498883437
-0.00036850396607261
0.10465602386635
-0.00051480266299546
0.1046573771809
-0.00066176106608928
0.10465910630229
-0.0008089056688824
0.10466126303628
-0.00095651156286464
0.10466395003437
-0.0011055487555452
0.10466732424129
-0.0012566170513757
0.10467155293481
-0.0014095516799306
0.10467680059086
-0.0015637383044894
0.10468320605427
-0.0017188556713045
0.10469095440911
-0.0018750528814685
0.10470026738781
-0.0020331697681565
0.10471151212481
-0.0021940327612542
0.10472507175986
-0.0023589373421715
0.10474154931131
-0.0025283848077574
0.10476143953161
-0.0027038686660678
0.10478562671914
-0.0028848212166504
0.10481461154756
-0.0030734801060102
0.10484969141674
-0.0032668774039228
0.10489116540353
-0.0034701258316146
0.10494099928172
-0.0036747689285986
0.104998950109
-0.0038949243310114
0.1050678975991
-0.0041076363049805
0.10514735204379
-0.0043522236921822
0.10524064502899
-0.0045646673626129
0.1053513293782
-0.0048532963303482
0.10547438382614
-0.0050373067329065
-0.0054179497350905
0.10563075296013
0.09877961973088
-7.3302674109207e-05
0.098779608959816
-0.00022221246856733
0.098779310809201
-0.00036820601362592
0.098778780295147
-0.00051427234385386
0.09877814373849
-0.00066112469936418
0.098777416275474
-0.0008081783907605
0.098776641237662
-0.00095573670544083
0.098775877648012
-0.0011047853428475
0.098775262867138
-0.0012560024447645
0.098774971461377
-0.0014092604466135
0.098775171127215
-0.0015639381411949
0.098775996445499
-0.0017196811593172
0.098777617772242
-0.0018766743765606
0.09878022969074
-0.0020357818537812
0.098784174513841
-0.002197977749667
0.098789799697715
-0.0023645626894502
0.098797699738471
-0.0025362850089291
0.098808304100006
-0.0027144731843537
0.09882254261183
-0.0028990598796467
0.09884075060978
-0.0030916882481938
0.098864499729234
-0.0032906266584967
0.098893567224396
-0.0034991934521201
0.098930973246193
-0.0037121750652515
0.09897470278878
-0.0039386539787642
0.099031200514584
-0.0041641341262992
0.099093320176398
-0.0044143434401299
0.099175251451004
-0.0046465987145372
0.099259868573473
-0.0049379135247493
0.099374616882062
-0.0051520551142207
0.099547700396725
-0.0055910333348609
0.39456919678623
0.0046505528418543
0.39007784578465
0.0044913509537686
0.38575022597016
0.0043276197673972
0.38159074720896
0.0041594787139741
0.37760367617557
0.0039870709860251
0.37379313591268
0.0038105402148357
0.37016309891842
0.0036300369457727
0.36671738002413
0.0034457188449007
0.36345963054452
0.003257749429676
0.3603933342471
0.0030662962464848
0.35752180385801
0.002871530337589
0.35484817766061
0.0026736261448365
0.35237541591139
0.002472761696077
0.35010629714011
0.0022691187170391
0.34804341430566
0.0020628827796621
0.3461891710465
0.0018542432032416
0.344545777938
0.0016433930520638
0.34311524889286
0.0014305289875499
0.34189939747548
0.0012158513592894
0.34089983320664
0.00099956420956782
0.34011795722938
0.00078187591746226
0.33955495673686
0.00056300043146412
0.33921179322088
0.00034316345438255
0.33908914954631
0.00012264361163972
0.33918767538435
-9.8525901564489e-05
0.33950778623181
-0.00032011091237652
0.340049490774
-0.00054170460770627
0.34081265989536
-0.00076316918825381
0.34179694688817
-0.00098428706021024
0.34300177822112
-0.0012048314015801
0.34442635179618
-0.0014245736439862