/*--------------------------------*- C++ -*----------------------------------*\
| =========                 |                                                 |
| \\      /  F ield         | OpenFOAM: The Open Source CFD Toolbox           |
|  \\    /   O peration     | Version:  2112                                  |
|   \\  /    A nd           | Website:  www.openfoam.com                      |
|    \\/     M anipulation  |                                                 |
\*---------------------------------------------------------------------------*/
FoamFile
{
    version     2.0;
    format      ascii;
    arch        "LSB;label=32;scalar=64";
    class       volScalarField;
    location    "13.4";
    object      p;
}
// * * * * * * * * * * * * * * * * * * * * * * * * * * * * * * * * * * * * * //

dimensions      [0 2 -2 0 0 0 0];

internalField   nonuniform List<scalar> 
22000
(
0.046307584708482
0.046284684871446
0.046237192497203
0.0461640290769
0.046064703081603
0.045939212120415
0.045787782833488
0.045610667433471
0.045408050755987
0.045180057485042
0.044926795544817
0.04464839247673
0.044345006345245
0.044016829771909
0.043664079011301
0.043286999265838
0.042885850448616
0.042460929996681
0.04201254453305
0.041541058971995
0.041046828055512
0.040530303568397
0.039991877134841
0.039432120044451
0.03885142559247
0.038250550676248
0.037629800478628
0.036990260897304
0.036331924499965
0.035656491029447
0.046737246732657
0.046713252341463
0.046664500378873
0.04659002430063
0.046489284220708
0.046362195603054
0.046208925574854
0.046029693105084
0.045824663969067
0.045593948612329
0.045337639173252
0.045055844967901
0.044748701765833
0.044416379668965
0.044059069147103
0.043676993017559
0.043270383704168
0.042839519712123
0.042384677696498
0.041906210789658
0.041404436866498
0.040879809473988
0.040332666789864
0.039763609452062
0.039172937537938
0.038561494461331
0.037929387191272
0.037277900437527
0.036606526504066
0.035917279723351
0.047523358363095
0.047498758239025
0.047448868801408
0.047372801512887
0.047270054547501
0.047140534270707
0.046984374306493
0.046801755049671
0.046592805893833
0.04635760383779
0.046096206054412
0.045808685185417
0.045495135226675
0.045155684746375
0.044790476913262
0.04439969257447
0.043983512523848
0.043542177701111
0.043075906861032
0.0425850275535
0.042069787235938
0.041530640739952
0.040967827549135
0.040382007391298
0.039773312740826
0.039142773398923
0.03849014542054
0.037817170392501
0.037122437771951
0.03640874829651
0.048611738215688
0.048586587874587
0.048535585288551
0.048457836052976
0.048352833478582
0.048220470943466
0.048060856459304
0.047874133537349
0.047660386065692
0.047419641599895
0.047151903255707
0.046857187719636
0.046535526366761
0.046186985397337
0.045811636540185
0.045409596006891
0.044980965080289
0.044525924827611
0.044044604130585
0.043537286905358
0.043004111787214
0.042445527809919
0.041861623835376
0.041253135358844
0.040619942289228
0.039963327078196
0.039282518314692
0.038579878373746
0.037852649902047
0.037104707225889
0.049954422654883
0.049928740030807
0.04987665106846
0.049797244892245
0.049689993654563
0.04955476375379
0.049391627352548
0.049200680817661
0.048981948607826
0.04873539118162
0.048460936567299
0.048158522918259
0.047828093925553
0.047469628051269
0.047083096769019
0.046668524064904
0.046225898563628
0.045755313369677
0.045256769258831
0.044730481380748
0.044176433592294
0.043595053125327
0.042986217477484
0.042350743570556
0.04168816516732
0.041000072893203
0.040284993691964
0.039546079934743
0.038778831680824
0.037988535463728
0.051508496957119
0.051482371898638
0.051429375716195
0.051348583695629
0.051239441434668
0.051101776440527
0.050935609901464
0.050740974389243
0.050517816491295
0.050266009335236
0.049985382875872
0.049675771834174
0.049337004114422
0.048968941347551
0.04857142166508
0.048144344481538
0.04768754739829
0.047201001621309
0.046684535248937
0.046138262372417
0.04556195876827
0.044956005533241
0.044320000596648
0.043654838876972
0.042959609312337
0.042236257482536
0.041482434346912
0.040702238033322
0.03988903152568
0.03904980635561
0.053235017403106
0.053208627892291
0.05315508121664
0.053073443127103
0.052963128483694
0.05282391438243
0.052655755368269
0.052458602413825
0.052232304488587
0.051976625909284
0.051691274269407
0.051375954326072
0.051030347921031
0.050654167950142
0.050247082689977
0.049808830538135
0.049339054977537
0.048837565820931
0.048303967759102
0.047738234288729
0.047139872339542
0.046509183342991
0.045845409053484
0.045149507342034
0.044420014517736
0.043659260959436
0.042863838117207
0.04203891819645
0.041175324099116
0.040281990239595
0.055098139448818
0.055071747045608
0.055018175156078
0.054936485664928
0.054826058951864
0.054686610481365
0.054518012856059
0.054320117971097
0.054092657619172
0.053835265793901
0.05354750312415
0.053228917175072
0.052879012322821
0.05249731911718
0.052083297179293
0.051636484349679
0.051156283143368
0.050642297614842
0.050093852820723
0.049510734994768
0.048892114045152
0.048238168250946
0.047547697553518
0.046821693737733
0.046058023309065
0.045259412060555
0.0444212008721
0.043549734887108
0.042632892710575
0.04168173013174
0.057064591256577
0.057038534115497
0.056985616561655
0.056904901388772
0.056795731266117
0.056657750330275
0.056490735626847
0.056294423943977
0.056068411600177
0.055812181851826
0.055525124732697
0.055206604109298
0.0548559159475
0.054472374746634
0.054055192113642
0.053603664318678
0.053116904023076
0.052594261719711
0.052034722670764
0.051437833015241
0.050802351390996
0.050128279530969
0.049413882011164
0.04866014095393
0.047864127694338
0.047028952286402
0.046148510013213
0.045230383361511
0.04425910594827
0.043247957805401
0.059103440212683
0.059078114729344
0.059026663592355
0.058948147595538
0.058841865581592
0.058707382765247
0.058544370482662
0.058352437681395
0.058131029895986
0.057879461957607
0.057596932258074
0.057282596791306
0.056935514442841
0.056554751707868
0.056139234441079
0.055687976898008
0.055199753401915
0.054673611625532
0.054108135514943
0.053502573848592
0.052855196236621
0.052165765789127
0.051431912354561
0.050654549374499
0.049829821059261
0.04896118581866
0.048040897089556
0.047077797414633
0.046052685908682
0.044981074837971
0.061186069815177
0.061161920121024
0.06111283849911
0.061037889354965
0.060936324040438
0.060807622486113
0.060651342817503
0.060466956739982
0.060253747263464
0.060010846834274
0.059737245725821
0.059431872392495
0.059093524544437
0.058720992414583
0.058312882424448
0.057867888913202
0.057384402799312
0.056861120175252
0.056296164409617
0.055688426830446
0.055035611201507
0.054337172510059
0.053590006202585
0.052794883453437
0.051946886730554
0.051049755907185
0.050093903980803
0.049089400907345
0.048012945233342
0.046882195803419
0.063286216769518
0.063263715739617
0.063217961707153
0.063148035055189
0.063053141817099
0.062932672969431
0.062786068115079
0.062612655955616
0.062411550528412
0.062181693336256
0.061921855164365
0.061630722309282
0.061306814275412
0.060948623011186
0.060554409153867
0.060122513679108
0.05965090618279
0.059137884134968
0.058581058352397
0.057978899685441
0.057328476753533
0.056628857760101
0.055876112813999
0.055070783067362
0.054206767610315
0.053287997178902
0.052302862686982
0.051262527222112
0.050139241061928
0.048952504169322
0.065380072734219
0.06535970366589
0.065318257090629
0.065254845500241
0.06516863638458
0.065058931772612
0.064925050734393
0.064766177238371
0.064581255520244
0.064369034579993
0.064128062653288
0.063856776772298
0.063553408086164
0.063216135123108
0.062842856327469
0.06243153345849
0.061979687414434
0.061485174176269
0.06094505192551
0.060357305449043
0.059718314754152
0.059026665458639
0.058277537961431
0.057471107198212
0.056600035495251
0.055668241925014
0.054662146161625
0.053593602601918
0.0524306322503
0.051193005690326
0.067446414977042
0.067428654931663
0.067392484806052
0.067337067249466
0.067261541023776
0.067165123208297
0.067047014903398
0.066906258917729
0.066741634856756
0.066551704600141
0.06633479851999
0.066089106862358
0.065812572699214
0.065503056355513
0.065158085789425
0.064775228955478
0.064351541387407
0.063884406229135
0.063370299688313
0.062806661575254
0.062189145178701
0.061515748517969
0.060780730486463
0.059983710617445
0.059116123210001
0.058181515768494
0.057164517407607
0.056076922636106
0.05488366820061
0.053603944820986
0.069466713909399
0.069452018073749
0.069422050573984
0.069376043512976
0.069313119259526
0.069232417636485
0.069133028949563
0.069013864081847
0.068873549618366
0.068710473336262
0.06852276055921
0.068308366698134
0.068064956614281
0.067790080480271
0.06748089933866
0.067134586663254
0.066747724093518
0.066317210902458
0.065838914982987
0.065309703558986
0.064724448080725
0.064080512818214
0.06337114044037
0.062595331457131
0.061743138946674
0.060817691469548
0.059801495803925
0.058706533641396
0.05749333491557
0.056181412495271
0.071425190773485
0.07141397814444
0.071391067849822
0.071355781570637
0.071307239439121
0.071244514853229
0.071166598886277
0.071072285217835
0.070960065469911
0.07082817365391
0.07067455110387
0.070496939691797
0.070292746380643
0.070059230744999
0.069793203409223
0.069491457821114
0.069150108437671
0.06876557328144
0.068333102671344
0.067848979046929
0.06730725581983
0.066704629995519
0.066033251272342
0.06529145163071
0.06446776335016
0.06356485695255
0.062562840454403
0.061473850761575
0.060253395421626
0.058920820839476
0.073308813448657
0.073301455390736
0.073286361548384
0.073262963497603
0.073230395052141
0.073187676686351
0.073133715613255
0.073067207855774
0.072986533868832
0.072889800812204
0.072774794777757
0.072639074180955
0.072479818566047
0.072294027847392
0.072078191595525
0.071828751796437
0.071541378947736
0.07121203055663
0.070835347013951
0.070407032770068
0.069920307372714
0.069371187361986
0.06875067114856
0.068056382435427
0.067275210218955
0.066409315461738
0.065436189132421
0.064368087096027
0.063154934177874
0.061815461577279
0.075107230550927
0.075104039891336
0.075097407401297
0.075086895116728
0.075071665723108
0.075050702274274
0.075022847028169
0.074986722002384
0.074940625043571
0.074882568686673
0.07481021922064
0.074720989337802
0.074611871034076
0.074479645685447
0.074320523587542
0.074130636959887
0.073905251524905
0.073639901834489
0.073328647313427
0.072966640708054
0.072546274527711
0.072062897049669
0.071506324454793
0.070873456479384
0.070149428080861
0.069335824136745
0.068407273675629
0.067376128094021
0.066186160131871
0.06485587462976
0.076812643028359
0.076813873148661
0.076816221860922
0.076819401770837
0.076822622700835
0.076824847393045
0.076824874376127
0.076821278634339
0.076812307848007
0.076795915587526
0.076769688621867
0.076730937103744
0.076676514104394
0.076603032237522
0.076506476868373
0.076382722741361
0.076226686554887
0.076033530076724
0.075796782852773
0.075511088079318
0.075168046785398
0.07476236689701
0.074282694420868
0.073725221392566
0.07307330189317
0.072327874599897
0.071460561677202
0.070483308057644
0.069333479287508
0.068027039674363
0.07841962470794
0.078425465147216
0.07843718540456
0.078454668812192
0.078477187436252
0.07850370077173
0.078532986708453
0.07856360218524
0.07859378185887
0.078621460257494
0.078644189289293
0.078659221169016
0.07866332443554
0.078652996705189
0.078624066043187
0.078572208753028
0.07849207000849
0.078378494861848
0.078224566299263
0.078024460052554
0.077769067353956
0.077452467742714
0.077062210314768
0.076593751356759
0.07602880628606
0.075367542172488
0.074579082899294
0.07367386457611
0.072584598847147
0.071318383050808
0.079924886221158
0.079935472124208
0.079956839035807
0.079989048339899
0.08003145186031
0.080083027332394
0.080142552516483
0.080208592048134
0.080279405758971
0.080352951914743
0.080426799472803
0.080498191465584
0.080563874236164
0.080620282991234
0.080663166864242
0.080688057886266
0.080689431412605
0.080661864060074
0.080598126457048
0.0804919505632
0.080333688420006
0.080116750727511
0.079827787057763
0.079461338250258
0.078997728757026
0.078436031332246
0.077743635558774
0.076928725842045
0.075921469046556
0.07471701804416
0.081327021967115
0.081342428472963
0.081373603995537
0.081420788881636
0.081483430061205
0.08156054440582
0.081650921164823
0.081753160959482
0.081865591289619
0.081986228055092
0.082112701985031
0.082242294188334
0.082371802419394
0.082497657490866
0.082615628741258
0.082721152109125
0.082808663274627
0.082872484348303
0.082905267717177
0.082900252829326
0.082847567488931
0.082739793230482
0.082563143114256
0.082310902521837
0.081962339485332
0.081515069863701
0.080934020282626
0.080227995269119
0.079320221592762
0.078205268035914
0.082626294260756
0.082646454857804
0.082687408332895
0.082749609384037
0.082832616184767
0.082935478386406
0.083056972869564
0.083195779111738
0.083350350302086
0.083518786790449
0.083698816426165
0.083887794471785
0.084082628091153
0.08427978350113
0.084475149039502
0.084664109753759
0.084841231143831
0.085000578529036
0.085134960084398
0.085236952900212
0.085296958092664
0.085306228057872
0.085251544170043
0.085123898125736
0.08490320900246
0.084583723886791
0.084128530240954
0.083544919910419
0.082745668596487
0.081745166251272
0.083824641311181
0.083849225433229
0.083899472433364
0.083976293138554
0.084079420994871
0.084207815206262
0.084360146227585
0.084535385234031
0.084732108805336
0.084948454061371
0.08518227316243
0.085431060170599
0.085691905896502
0.085961355203892
0.086235462734193
0.08650955436031
0.086778413894887
0.087035824550855
0.087275029516663
0.087487772345495
0.087665383163057
0.087796977590956
0.08787155245756
0.087875264227455
0.087793392744326
0.087610082935451
0.087298639330575
0.086844508257957
0.08616507364006
0.08524814522101
0.084925928839561
0.084954582255221
0.08501313273474
0.085103482916452
0.085225806034815
0.085378730091533
0.085559943154693
0.085770087194716
0.08600766220635
0.086270688136299
0.086557099440961
0.086864522766895
0.087190298856554
0.087531218163796
0.087883654456466
0.088243029229145
0.088604373590121
0.088961207871531
0.089307159183846
0.089633181539003
0.089931769784796
0.090189888961645
0.090399775253778
0.090541287311116
0.090609019441328
0.090569969518474
0.090425640125578
0.090114423240808
0.089614473490689
0.088708543854096
0.035006115708362
0.034384102341712
0.03374883067894
0.033101515918508
0.032443207084592
0.031774688025913
0.031096606859258
0.030409595899445
0.029714327698777
0.029011528326338
0.028301967504551
0.027586439970328
0.026865751363649
0.026140713550419
0.025412145267035
0.024680872638414
0.023947728203138
0.023213548530463
0.022479171086785
0.021745431524479
0.021013162088008
0.020283192982423
0.019556357310672
0.018833501662768
0.018115489562309
0.017403044011137
0.016696634929453
0.015996953002929
0.015304769799736
0.014620815431782
0.013945745078152
0.013280153591812
0.012624589995452
0.011979566464935
0.011345557693003
0.010723003198932
0.010112299111883
0.0095138044865281
0.0089278276014135
0.0083546452537732
0.0077944732802275
0.0072475104929072
0.0067138725537377
0.0061936920988096
0.0056869688482004
0.0051937940956401
0.0047140083048686
0.0042477028513326
0.0037944216781955
0.0033542408274394
0.03525633070202
0.034626486041633
0.033981616414097
0.033324418649804
0.032656431981722
0.031978288218203
0.031290331797409
0.030592969814381
0.029886766483653
0.029172424659704
0.028450727493161
0.02772248429302
0.026988506852112
0.026249612525812
0.025506634548951
0.024760426470338
0.024011860456597
0.023261822982969
0.022511209982647
0.021760921908272
0.021011858679369
0.020264911482835
0.019520948286838
0.018780788618057
0.018045181780106
0.017314981827982
0.016591302192963
0.015874965112094
0.015166663118519
0.014467076037661
0.013776887512108
0.013096764287229
0.012427337083958
0.011769197031878
0.011122887222881
0.010488909207217
0.0098677102628119
0.0092597011584658
0.0086652278004315
0.0080846129112523
0.0075180920234157
0.0069659105378487
0.0064281780827191
0.0059050916822659
0.0053966028196091
0.0049029289429564
0.0044237977236291
0.0039596306084792
0.0035098674139349
0.0030757828718701
0.035725727929015
0.035073637772935
0.034402626120645
0.033718685872444
0.033024616228409
0.032320923633882
0.031607466113756
0.030884303948815
0.030151881315831
0.029410938803994
0.02866235317448
0.027907011371651
0.027145768985174
0.026379470246245
0.025608977791493
0.024835184357585
0.024059009555771
0.02328139180383
0.022503280124916
0.021725627493123
0.020949386354913
0.0201755063002
0.019404934062673
0.018638620393396
0.017877534384282
0.017122628693091
0.016374743155678
0.0156347296738
0.014903413679006
0.014181585066508
0.013469998964163
0.012769377756517
0.012080401539423
0.011403708816662
0.010739883344418
0.010089467751735
0.0094529400599901
0.0088307480248639
0.0082232551307753
0.007630821457887
0.0070536797836715
0.006492125178854
0.0059462280825158
0.0054162753489368
0.0049021065123312
0.0044041422633398
0.0039218651108841
0.003456255222422
0.0030064504112544
0.0025758346052662
0.036388917455337
0.035701272047431
0.034989245049293
0.034264029429029
0.033530303876089
0.032788291463017
0.032037051425114
0.031276103149924
0.030505713409052
0.029726678532673
0.028940001333477
0.028146660065821
0.02734754535881
0.026543508900776
0.025735423770815
0.024924207059744
0.024110814400569
0.023296227286819
0.022481442040541
0.021667462539109
0.020855297178046
0.020045957086057
0.019240452221766
0.018439783378951
0.017644929881311
0.016856847346526
0.016076494187028
0.01530479160527
0.01454262671634
0.01379085406688
0.013050289736398
0.012321712073669
0.011605851363201
0.010903397144581
0.010214979876638
0.0095411935488334
0.0088825567335749
0.008239569047186
0.0076126222466755
0.0070021348806537
0.0064083453801722
0.0058316292843729
0.0052720159333041
0.0047299334413668
0.0042050814363634
0.0036981917327419
0.0032084308075229
0.0027376456103611
0.0022846714083508
0.0018562710752184
0.037231217287769
0.036496524074386
0.035730281609953
0.03495084807443
0.034165389841821
0.033373640573056
0.032573514249397
0.031763791282931
0.030944517030699
0.030116576682957
0.029281142197721
0.028439304197702
0.027591987254127
0.026740041023192
0.025884341901582
0.025025829201855
0.024165495494691
0.023304366884406
0.022443487493274
0.021583910221397
0.020726693481671
0.019872899652629
0.019023590897073
0.018179823278665
0.017342641863664
0.016513076227798
0.015692137557123
0.014880812078152
0.014080053732176
0.013290783021398
0.012513879346483
0.011750183932155
0.011000486854446
0.010265539329011
0.009546028031238
0.008842608380965
0.0081558480651329
0.007486310220989
0.0068344221904121
0.0062006758819452
0.0055853186238954
0.0049888289509526
0.0044111894432383
0.0038530121882324
0.0033138306775851
0.0027947864693917
0.0022946581784987
0.0018164301775753
0.0013585590535824
0.00093223919289323
0.038243648939755
0.037451414252452
0.03661849031221
0.035772568079393
0.034923960223079
0.034071676681047
0.033212110884335
0.032343104659135
0.031464454254821
0.030577184315515
0.029682690068538
0.028782201190204
0.027876678281417
0.02696696234017
0.026053929495268
0.02513854286692
0.024221835874943
0.023304883090748
0.02238877930341
0.021474628564954
0.020563541949941
0.019656637811349
0.018755038491016
0.017859864295368
0.016972227441163
0.016093222638306
0.015223924872814
0.014365387020057
0.013518631259825
0.012684647331016
0.011864382783998
0.011058747812497
0.010268598861167
0.0094947555430471
0.0087379672403246
0.0079989582398176
0.0072783524420853
0.0065767857022225
0.0058947278618341
0.0052327570569147
0.0045911337391501
0.0039704597438505
0.0033706664586592
0.0027925847930035
0.0022355574523137
0.0017012100089305
0.0011878715289269
0.00069990829291623
0.00023536064980601
-0.00018895612654574
0.0394209225221
0.038561313621369
0.0376496527653
0.036725402395292
0.03580272827858
0.034879623454797
0.033950530580606
0.033012138840412
0.032063978983103
0.031107280615614
0.03014372386441
0.029174704262945
0.028201218380179
0.027224090989603
0.026244194859544
0.025262519860115
0.024280145797806
0.023298201044951
0.022317835711387
0.021340209364538
0.020366490186088
0.0193978570952
0.018435496729504
0.01748059623883
0.016534335913339
0.015597879668352
0.014672376070582
0.013758951734984
0.012858702622936
0.011972693531339
0.011101947037123
0.010247449870309
0.0094101329595404
0.008590893055464
0.0077905517516667
0.0070099118765787
0.0062496640048901
0.0055105277389017
0.0047930267409387
0.0040978392343549
0.0034252481411276
0.0027760003640171
0.0021499766654792
0.0015482658716107
0.00097000550785838
0.00041736945070863
-0.00011177202394269
-0.00061152820697932
-0.0010840950389763
-0.0015061179259501
0.040760946137003
0.039824658284163
0.038822436799875
0.037808285121266
0.036800985056715
0.035797145658543
0.034788760649967
0.033771133966236
0.032743527625796
0.031707458612661
0.030664961899401
0.029617627069677
0.028566485543058
0.027512337897147
0.026456052113355
0.025398650606698
0.024341268075546
0.023285094741766
0.022231342763639
0.021181233120092
0.020135996853823
0.01909687936376
0.018065137739803
0.017042032608709
0.016028820120268
0.015026741795287
0.014037027298804
0.013060885334849
0.012099494482471
0.011154003569689
0.010225519524521
0.0093151151682257
0.0084238063335053
0.0075525775096206
0.0067023336543491
0.0058739678236113
0.0050682496479221
0.0042859949126408
0.0035277949596976
0.0027944408913074
0.0020862535573246
0.0014041398588309
0.00074794147045637
0.0001190364146467
-0.00048365597106592
-0.0010573165392704
-0.0016046051874584
-0.0021177840646656
-0.0025993268750245
-0.0030179638721049
0.042263972425447
0.041242131803035
0.040137623888912
0.039022142464639
0.037919904332936
0.036825678323041
0.035728436538084
0.034621851000591
0.033504932203244
0.032379588496746
0.031248287788841
0.03011283964194
0.028974306156378
0.027833456362341
0.026691154756175
0.025548465377412
0.024406589334879
0.023266789064635
0.022130347662886
0.020998555690512
0.01987271515797
0.018754146391418
0.017644185870578
0.016544177044501
0.015455461659849
0.014379368262333
0.013317217132305
0.012270309262671
0.011239916620791
0.010227282751208
0.0092336103093087
0.0082600696288124
0.0073077735209138
0.0063778065098242
0.0054711699206568
0.0045888606555691
0.0037317402799473
0.0029007368137505
0.0020965210099531
0.0013200163970437
0.0005715912333306
-0.00014766418126206
-0.00083793870418897
-0.0014975374250882
-0.0021277517653301
-0.0027250659116928
-0.0032926733943613
-0.0038207847462142
-0.0043120496073956
-0.0047260271798037
0.043931792019821
0.042815890334208
0.041597394983588
0.040369259712561
0.039161995049674
0.037967959360344
0.036772447028841
0.035567241466747
0.034351147186606
0.033126594585991
0.031896572615639
0.03066313516192
0.029427366503885
0.028189995689047
0.026951888385331
0.025714163792127
0.024478104169007
0.023245056787655
0.022016386313816
0.02079346292377
0.019577669964786
0.018370413541517
0.017173120786837
0.015987229468703
0.014814178636632
0.013655395558
0.01251230325623
0.011386307261382
0.010278785700178
0.0091910899248286
0.0081245318893754
0.0070803929808692
0.0060598976879189
0.0050642447872673
0.004094547841459
0.0031519222153087
0.0022373390551507
0.0013518535313218
0.00049623405997872
-0.00032844560548937
-0.0011217556526176
-0.001882394579871
-0.0026105817859997
-0.0033042582428134
-0.0039649515676819
-0.0045883672822919
-0.0051782857811741
-0.0057226353719453
-0.0062241547746926
-0.0066319024333202
0.045767023028121
0.044548924851142
0.04320476087535
0.041852761682052
0.040530622348624
0.039227588816235
0.037924530759077
0.036611084404265
0.035285933241528
0.033952190232262
0.032613459057322
0.031272055082301
0.029929071355551
0.028585189766835
0.027241285902365
0.02589855272309
0.024558372868135
0.02322219386312
0.021891474761039
0.020567677847949
0.019252280862244
0.017946789166475
0.016652734266224
0.015371662117495
0.014105123289477
0.012854657853176
0.011621806133549
0.010408093161714
0.0092150186840158
0.0080440573617266
0.0068966466738624
0.0057741955751298
0.0046780570265931
0.003609561623968
0.0025699525258371
0.0015604825820526
0.00058224989022609
-0.00036354306602272
-0.0012760116454053
-0.0021539126346137
-0.0029967332564944
-0.0038029428464889
-0.0045727705696224
-0.0053037648609778
-0.00599768377698
-0.0066493834070427
-0.0072632522673273
-0.0078247042676657
-0.0083364738749463
-0.0087356976380267
0.047772371838376
0.046444333739219
0.04496295380778
0.04347614469788
0.042029630376835
0.040608695709366
0.039188970280904
0.037757702363332
0.036313591185567
0.034860628313382
0.033403129342729
0.031943677399068
0.030483354258242
0.029022789780322
0.027562885136496
0.026104931234122
0.02465043368425
0.023200958357792
0.021758073706254
0.020323348909546
0.01889837205968
0.01748476451234
0.016084179113125
0.014698286998558
0.013328767541121
0.011977290585262
0.010645531207246
0.0093351517324837
0.0080477918495021
0.0067850682775306
0.005548563036532
0.0043398320518587
0.0031603765748111
0.0020116796093112
0.00089513398216665
-0.00018784773607642
-0.0012360208181197
-0.0022480107825247
-0.0032227989370079
-0.0041589457129803
-0.0050558388867234
-0.0059116922383216
-0.0067267291617108
-0.0074980760375858
-0.0082277147044968
-0.0089095870942528
-0.0095486856545888
-0.010127662945727
-0.010649030330126
-0.011036580760234
0.049950237795501
0.048504750093203
0.046874764994295
0.045242633724386
0.043662783619943
0.042115456544848
0.040570159641865
0.039011577134269
0.037438635917593
0.035856430697211
0.034270079435894
0.032682424641219
0.031094512481581
0.029506922825238
0.027920607259654
0.026336985851661
0.024757714009544
0.02318449653369
0.021619029226774
0.020063006443793
0.01851814605325
0.016986205573876
0.015468979517051
0.013968284550996
0.01248594943129
0.011023793837422
0.0095836481420734
0.0081673333197494
0.0067766506047923
0.0054133811246891
0.004079273745318
0.0027760547872837
0.0015053965008404
0.00026895881891184
-0.00093169257499509
-0.0020949591479088
-0.0032194273808475
-0.0043035212657318
-0.0053460698730551
-0.0063454023106127
-0.0073007956695485
-0.0082101696720604
-0.0090737343334859
-0.0098881612156853
-0.010655654036826
-0.011369208561019
-0.012034467094233
-0.012631199856778
-0.013161680023926
-0.013535055583525
0.052302343729502
0.050732100184172
0.048942426874027
0.047155050472506
0.045433534664594
0.043751794502435
0.04207228869308
0.040377037910688
0.038665493225961
0.036944100299885
0.035218849795163
0.033492816499193
0.03176698459197
0.030041895094346
0.028318586998404
0.026598648304227
0.024883914024338
0.023176250899767
0.021477503047498
0.019789512205201
0.018114149918913
0.016453334365767
0.014809026039667
0.013183211379857
0.011577893162414
0.0099950646730414
0.0084367358473482
0.0069049116879019
0.0054015801874616
0.0039287138999396
0.0024882544207649
0.0010821266131943
-0.00028780030392805
-0.0016196597656889
-0.0029116874277914
-0.0041620670967543
-0.0053691918863822
-0.0065312486909068
-0.007646895590918
-0.0087141863819185
-0.0097322826795613
-0.0106987536112
-0.011613807427973
-0.012473606635966
-0.013280586743988
-0.014026773988277
-0.014718455536032
-0.01533239475367
-0.015870456887042
-0.016225731460377
0.054828029059848
0.053127119007797
0.051167323876063
0.049215516749021
0.04734477789847
0.045521147210826
0.043699106064344
0.041858043484706
0.039998310836114
0.038127952837442
0.036253872639533
0.034379328664957
0.032505218227138
0.030632069819401
0.028761059923963
0.026893990982594
0.025032911287753
0.023179874607701
0.021336897902362
0.019505997388608
0.017689227054524
0.015888694769063
0.014106555651537
0.012344994530822
0.010606217011944
0.0088924172884314
0.0072058133059963
0.0055486254952116
0.0039230587398161
0.0023313094666885
0.00077554084555005
-0.00074208915135344
-0.0022194858109146
-0.0036545382347442
-0.0050452565340961
-0.0063895658238907
-0.0076856410086477
-0.0089313876308839
-0.01012527268075
-0.011265023788556
-0.01234968354769
-0.013376399033818
-0.014345410697808
-0.015252270250093
-0.01609970122397
-0.016878677297843
-0.017596115549591
-0.0182257166648
-0.018768735502224
-0.019101055258867
0.057524521192462
0.055688146991587
0.053548989357961
0.051424807419398
0.049398328018496
0.04742603959973
0.045453579191913
0.043457880222278
0.041440668830029
0.039411843798137
0.037379220410677
0.035346166083764
0.033313470398121
0.031281693029577
0.029252213301582
0.027227100380131
0.025208650880653
0.023199134385331
0.021200770881763
0.019215785035986
0.017246449112177
0.015295094979496
0.01336410486701
0.011455894330393
0.0095729095679933
0.0077175744009711
0.0058923438891752
0.0040996917291538
0.0023420785054928
0.00062196523535363
-0.0010582310834719
-0.002696078336434
-0.0042892259020963
-0.0058352696492537
-0.0073319678355535
-0.0087769301042299
-0.010168094166277
-0.011503019736839
-0.012779971088991
-0.013996281894765
-0.015150873055681
-0.016240394204315
-0.017265151547624
-0.018219964121452
-0.019107960690286
-0.019918879170099
-0.02066038562351
-0.02130304435086
-0.021847276482984
-0.022151017372003
0.060387173651039
0.05841156429532
0.056085020794068
0.053782026949727
0.051594602884499
0.049467766385648
0.047337562800666
0.04517886372449
0.042995339534527
0.040798965597642
0.038598415000927
0.036397073582667
0.03419562198486
0.03199472215395
0.029796034509006
0.027601948911787
0.025415044679909
0.023237837213428
0.02107278524026
0.018922362888644
0.016789104586405
0.014675610385399
0.012584530144054
0.010518538669931
0.0084803603311633
0.0064726931386604
0.0044982642391931
0.0025598424088475
0.00066018812180378
-0.0011979259220457
-0.0030117882690381
-0.0047786441150041
-0.0064958514426732
-0.0081606551888765
-0.0097705338895587
-0.011322705813774
-0.012814862140932
-0.014244118110747
-0.015608552326745
-0.016904982754391
-0.018132243237883
-0.019286364506654
-0.020367760306239
-0.021370408313734
-0.022297962016615
-0.023138719878395
-0.023901437182511
-0.024553217853461
-0.025093707385543
-0.025362469585934