/*--------------------------------*- C++ -*----------------------------------*\
| =========                 |                                                 |
| \\      /  F ield         | OpenFOAM: The Open Source CFD Toolbox           |
|  \\    /   O peration     | Version:  2112                                  |
|   \\  /    A nd           | Website:  www.openfoam.com                      |
|    \\/     M anipulation  |                                                 |
\*---------------------------------------------------------------------------*/
FoamFile
{
    version     2.0;
    format      ascii;
    arch        "LSB;label=32;scalar=64";
    class       surfaceScalarField;
    location    "13.4";
    object      phi;
}
// * * * * * * * * * * * * * * * * * * * * * * * * * * * * * * * * * * * * * //

dimensions      [0 3 -1 0 0 0 0];

oriented        oriented;

internalField   nonuniform List<scalar> 
43645
(
0.3951239783829
-5.1053633317501e-06
0.39513907435087
-1.5096020546186e-05
0.39516399785792
-2.4923563956614e-05
0.39519863769742
-3.4639898447126e-05
0.39524292454717
-4.4286909220777e-05
0.3952968120484
-5.3887560488482e-05
0.39536026141636
-6.3449426533722e-05
0.39543323354311
-7.29721846e-05
0.39551567697611
-8.2443489959475e-05
0.39560752135977
-9.1844439836417e-05
0.39570866913634
-0.00010114783187736
0.39581900312261
-0.00011033404083507
0.39593838173152
-0.00011937866261334
0.39606665895666
-0.00012827727813559
0.39620366716849
-0.00013700826400023
0.39634925230171
-0.00014558518472698
0.39650322298468
-0.00015397073366532
0.39666542398017
-0.00016220104559442
0.39683561787172
-0.00017019394088477
0.39701365899796
-0.00017804117505364
0.397199227959
-0.00018556900914511
0.39739223717062
-0.0001930092592596
0.39759221976732
-0.00019998264368771
0.39779926004078
-0.00020704032004615
0.39801258112358
-0.0002133211287634
0.39823268416935
-0.00022010309139692
0.39845809626376
-0.00022541213945865
0.39869029718442
-0.00023220096481904
0.39892623742229
-0.00023594028056531
-0.00024340697076484
0.39916964435007
0.37294729629282
-9.8469938890724e-06
0.37296141797941
-2.9217791570579e-05
0.37298492187406
-4.8427544749247e-05
0.37301771326863
-6.7431379365944e-05
0.37305973361293
-8.6307339145796e-05
0.3731109473628
-0.00010510139500926
0.37317132708187
-0.00012382922903013
0.37324084489821
-0.00014249008324943
0.37331946086342
-0.00016105953623533
0.37340711748905
-0.00017950114547428
0.37350373217605
-0.00019776259765917
0.37360920455623
-0.00021580649878779
0.37372341080611
-0.00023358498905901
0.37384622261749
-0.0002510891651363
0.37397748959827
-0.00026827531924857
0.37411707462455
-0.00028517028461348
0.37426480382656
-0.00030170000822356
0.37442054040247
-0.00031793769331291
0.37458406692489
-0.00033372053413925
0.37475525797557
-0.0003492322959605
0.3749338151554
-0.00036412625833519
0.37511966926835
-0.00037886344108576
0.37531237296825
-0.00039268641167703
0.37551202423863
-0.00040669165813072
0.37571786727284
-0.0004191642299648
0.37593041255452
-0.00043264843975543
0.37614822198717
-0.00044322163813757
0.37637277850657
-0.00045675754910446
0.37660110835109
-0.00046427018720432
-0.00047924548573013
0.37683694680261
0.35201551032864
-1.4459884007783e-05
0.35202920789064
-4.2915444701333e-05
0.35205192699976
-7.114674566004e-05
0.35208360824815
-9.9112719049971e-05
0.35212421783211
-0.00012691701317867
0.35217373517576
-0.0001546188274585
0.35223214381203
-0.00018223795263574
0.3522994266005
-0.00020977295778725
0.35237555612936
-0.00023718914970913
0.35246049115592
-0.00026443625545041
0.35255416918157
-0.0002914407052685
0.35265651354442
-0.0003181509424277
0.35276742489557
-0.00034449641954718
0.35288679982038
-0.00037046416818501
0.35301451019398
-0.00039598576968642
0.35315044238505
-0.00042110255152492
0.35329444343469
-0.00044570113239144
0.35344640381758
-0.00046989814988569
0.35360612828526
-0.00049344507430556
0.35377352523745
-0.00051662931996352
0.35394831303457
-0.00053891412619167
0.35413046069673
-0.00056101117347355
0.35431951804775
-0.00058174383197242
0.35451563127699
-0.00060280495626701
0.3547180051518
-0.00062153817284075
0.35492723347561
-0.00064187683138831
0.35514176837041
-0.00065775660002172
0.35536326223714
-0.00067825148188092
0.35558847407465
-0.00068948208780232
-0.00071224477302785
0.35582147329704
0.3322585023817
-1.8918383615113e-05
0.33227176280893
-5.6175954446565e-05
0.33229377427872
-9.3158298759289e-05
0.3323245030665
-0.00012984158980176
0.33236393748318
-0.00016635151174402
0.332412074772
-0.00020275619701097
0.33246891339365
-0.0002390766535953
0.33253445016211
-0.00027530980435275
0.33260867292744
-0.0003114119916846
0.33269156006494
-0.00034732346839201
0.33278307356532
-0.00038295427960814
0.33288316611866
-0.00041824356856595
0.33299176871469
-0.00045309908690246
0.33310880909462
-0.00048750461835548
0.33323418664184
-0.00052136338574407
0.33336781728162
-0.00055473325920353
0.33350957364197
-0.00058745755937581
0.3336593810196
-0.00061970559338762
0.33381707094691
-0.00065113506637731
0.33398259580075
-0.0006821542380272
0.33415569251907
-0.00071201090776484
0.33433638111679
-0.00074169983411002
0.33452420199906
-0.00076956477635698
0.33471936857752
-0.00079797159666242
0.33492102417093
-0.00082319382752881
0.3351298850089
-0.00085073773062449
0.33534424564192
-0.00087211729377306
0.33556602175141
-0.00090002765133972
0.33579161146597
-0.00091507185975764
-0.00094630082091729
0.33602566745435
0.31361036159282
-2.3222671201915e-05
0.31362319092123
-6.9005361997488e-05
0.31364451842291
-0.00011448588021359
0.31367434603503
-0.00015966928127517
0.31371268865498
-0.0002046942098722
0.31375956375849
-0.00024963137748514
0.3138149873328
-0.00029450030337776
0.31387897341776
-0.00033929596348159
0.3139515289323
-0.0003839675788053
0.31403265642344
-0.00042845103081145
0.31412234763293
-0.00047264555873079
0.31422059072411
-0.00051648672810977
0.31432735328966
-0.0005598617191978
0.31444260087809
-0.00060275227233731
0.3145662663923
-0.00064502896398412
0.3146983021528
-0.00068676908273107
0.31483861227908
-0.00072776774731542
0.31498716515641
-0.00076825853159097
0.31514382511003
-0.00080779507971942
0.31530859900618
-0.00084692819336846
0.31548124648526
-0.00088465844508115
0.31566185170851
-0.00092230511534162
0.3158499438948
-0.00095765701990259
0.31604582261102
-0.00099385037010921
0.31624855632328
-0.0010259275965052
0.3164590175899
-0.0010611990541642
0.3166753055757
-0.0010884053361713
0.31689966481338
-0.0011243869451459
0.317128036322
-0.0011434434223031
-0.0011840470999217
0.31736578254446
0.29600884215005
-2.7363034016921e-05
0.29602121489245
-8.1378181325392e-05
0.29604181957663
-0.00013509064183112
0.29607069976508
-0.0001885495466525
0.29610790166844
-0.00024189618893419
0.29615346650754
-0.00029519629104496
0.29620743082572
-0.00034846469444259
0.29626982905693
-0.00040169426622652
0.29634069080805
-0.00045482939978478
0.29642004720061
-0.00050780749183872
0.29650792486409
-0.00056052328894345
0.2966043533946
-0.00061291532397371
0.2967093432057
-0.00066485159392822
0.29682290434595
-0.0007163134749605
0.29694500959574
-0.00076713427450654
0.29707565484804
-0.00081741439471828
0.29721478231706
-0.00086689527456783
0.29736241210443
-0.00091588837639736
0.29751844838648
-0.00096383141798862
0.29768296327329
-0.0010114431358922
0.29785574508101
-0.0010574403075696
0.29803695514422
-0.0011035152331058
0.29822611308549
-0.0011468150150435
0.29842362174183
-0.0011913590804036
0.29862846680444
-0.0012307727126252
0.29884170426988
-0.0012744365734839
0.29906121097609
-0.0013079120960389
0.29928961090161
-0.0013527869240452
0.2995223223307
-0.0013761549027967
-0.0014272413963673
0.29976551657271
0.27939519005366
-3.1318638649207e-05
0.27940704734086
-9.3235543457233e-05
0.27942683539009
-0.00015487876636559
0.27945464353373
-0.00021635776502166
0.27949055273602
-0.00027780546465595
0.27953463087417
-0.00033927450134555
0.279586937724
-0.00040077161478043
0.27964753089558
-0.00046228750690831
0.27971646584942
-0.0005237644209389
0.27979380616332
-0.00058514787159135
0.27987961796058
-0.00064633515017618
0.27997397768529
-0.00070727511121591
0.28007694438402
-0.00076781835332327
0.28018857899239
-0.00082794814267253
0.28030890052889
-0.00088745586859678
0.28043795565757
-0.00094646957987826
0.28057573166612
-0.0010046713380651
0.28072230906481
-0.0010624658292121
0.28087763961765
-0.0011191620236834
0.28104187135866
-0.0011756749292679
0.28121482870542
-0.0012303977057241
0.28139676295066
-0.0012854495296019
0.28158718886985
-0.0013372409848297
0.28178662868446
-0.0013907989457976
0.28199398414105
-0.0014381282196392
0.28221051838436
-0.0014909708677088
0.28243387292832
-0.0015312666907941
0.2826670914954
-0.0015860055418141
0.28290503254763
-0.0016140960039819
-0.0016769613843857
0.28315475248332
0.26371395178752
-3.5061045461906e-05
0.26372521129611
-0.00010449512514387
0.26374404984553
-0.00017371738915188
0.26377060551458
-0.0002429135068498
0.26380499630792
-0.00031219632944761
0.26384731873339
-0.00038159699701898
0.26389765773953
-0.00045111068944577
0.26395609624927
-0.00052072608376603
0.26402271810316
-0.00059038634011256
0.26409762248323
-0.00066005231545824
0.26418091881503
-0.00072963154383093
0.26427273493402
-0.000799091290586
0.26437318357884
-0.0008682670565782
0.26448238226736
-0.00093714688827748
0.26460040224542
-0.0010054759019253
0.26472734775278
-0.0010734151413592
0.26486325813911
-0.001140581776932
0.26500828267602
-0.0012074904178137
0.26516242884024
-0.001273308238285
0.26532593086015
-0.0013391769990627
0.26549865799782
-0.0014031248922825
0.26568096381392
-0.0014677553944662
0.26587236634078
-0.0015286435597568
0.26607352210823
-0.0015919547615465
0.26628325443939
-0.0016478605987061
0.26650305290297
-0.0017107693797106
0.26673032398681
-0.0017585378229229
0.26696855832818
-0.001824239931396
0.26721204408446
-0.0018575818068483
-0.0019336815984764
0.26746876424839
0.24891278876753
-3.8557190343089e-05
0.24892335403936
-0.00011506046797144
0.24894108700746
-0.000191450428428
0.24896617596425
-0.00026800253421032
0.24899877686726
-0.00034479730170466
0.24903901575446
-0.00042183595221926
0.24908700382912
-0.00049909883042406
0.24914285068053
-0.00057657300008764
0.2492066702635
-0.00065420598612167
0.24927859956069
-0.00073198167420411
0.24935879404648
-0.00080982608917288
0.24944743625941
-0.00088773356159102
0.24954469657031
-0.00096552742355023
0.24965075361374
-0.0010432039864219
0.24976573607484
-0.0011204584158681
0.24988981163228
-0.0011974907505024
0.25002307829618
-0.0012738484909012
0.25016576149679
-0.0013501736676539
0.25031793259486
-0.0014254793842359
0.25047992117301
-0.0015011656246211
0.25065165119326
-0.0015748549589199
0.25083358952989
-0.0016496937773706
0.25102526876874
-0.0017203228441919
0.25122749245076
-0.001794178489386
0.25143901794546
-0.001859386138818
0.25166157448526
-0.0019333259654723
0.25189234771188
-0.0019893110953266
0.25213528616433
-0.0020671784295902
0.25238412701022
-0.0021064226969586
-0.0021973368697924
0.25264778223358
0.23494230418189
-4.1773877675595e-05
0.23495207139827
-0.00012482775331736
0.23496853347717
-0.00020791257642223
0.23499192785169
-0.00029139697723583
0.23502244781658
-0.00037531733379762
0.23506024857853
-0.0004596367802045
0.23510546754369
-0.00054431785995386
0.2351582412085
-0.00062934672793072
0.23521871432726
-0.00071467916604925
0.23528706267956
-0.00080033008621914
0.23536348928189
-0.0008862527492354
0.23544823314856
-0.00097247748454782
0.23554152485387
-0.0010588191831359
0.23564360702441
-0.0011452862099078
0.23575466993386
-0.0012315213763782
0.23587494891556
-0.0013177697821615
0.23600460663402
-0.0014035062576487
0.23614395016359
-0.0014895172446998
0.23629312290847
-0.0015746521752073
0.23645255650455
-0.001660599266337
0.23662224076737
-0.001744539266298
0.23680276390558
-0.0018302169600275
0.23699368815096
-0.0019112471332596
0.23719597312181
-0.0019964635041423
0.23740833016065
-0.0020717432210748
0.2376327341722
-0.0021577300209224
0.23786617953323
-0.0022227564999754
0.2381130646406
-0.002314063580473
0.23836662824316
-0.0023599863415186
-0.0024673834395618
0.23863667476719
0.22175587583656
-4.4679987500208e-05
0.22176474565904
-0.00013369764246771
0.22177977685507
-0.00022294383920969
0.22180125323474
-0.00031287342310145
0.22182940392177
-0.00040346808577487
0.22186441234787
-0.00049464527013401
0.22190644144718
-0.00058634702149323
0.22195565393104
-0.00067855927274692
0.22201222476681
-0.00077125006093911
0.22207636786374
-0.00086447324088862
0.22214833366119
-0.0009582186024694
0.22222841749033
-0.0010525613680619
0.22231691115613
-0.0011473129013424
0.22241412200658
-0.0012424971114787
0.22252030494293
-0.001337704361997
0.22263576462068
-0.0014332295081003
0.22276073404895
-0.0015284757324615
0.22289560389156
-0.001624387133069
0.2230405988558
-0.0017196471838294
0.22319625393878
-0.0018162543932635
0.22336263981901
-0.0019109251893904
0.22354046579552
-0.0020080429792816
0.22372934709408
-0.0021001284737906
0.22393039711884
-0.0021975135710609
0.22414231553052
-0.0022836616743817
0.22436731560426
-0.0023827301367008
0.22460225243733
-0.002457693374735
0.22485194262196
-0.0025637538066209
0.22510920714248
-0.0026172509020639
-0.0027428415406961
0.22538466519986
0.20930949958465
-4.7247683210404e-05
0.20931738675404
-0.00014158487624388
0.20933084483183
-0.00023640198145548
0.20935020141465
-0.00033223006988309
0.20937571893835
-0.00042898567225995
0.20940760689577
-0.00052653328932277
0.20944605195676
-0.0006247921427244
0.20949124139432
-0.00072374876936135
0.20954337910585
-0.0008233878297693
0.20960271545301
-0.00092380964405437
0.20966954665899
-0.0010250498625627
0.20974422205952
-0.0011272368213926
0.2098270938006
-0.0012301846933099
0.20991853222479
-0.0013339355853375
0.21001885853756
-0.0014380307226225
0.21012844524247
-0.0015428162598598
0.21024760130483
-0.0016476318400534
0.21037679773863
-0.001753583611373
0.21051635275934
-0.0018592022476668
0.21066689611196
-0.0019667977885861
0.21082860484918
-0.0020726339682194
0.2110022885297
-0.0021817267012934
0.21118766413122
-0.0022855041159679
0.21138595843431
-0.0023958079149719
0.2115959345197
-0.0024936377999677
0.21181998613063
-0.0026067817881662
0.21205494165346
-0.0026926489376133
0.21230595012139
-0.0028147623143472
0.21256560608274
-0.002876906901671
-0.0030223613890662
0.21284512588921
0.19756164369837
-4.9454910288174e-05
0.19756848063342
-0.00014842187327198
0.19758024938627
-0.0002481707963702
0.19759731791951
-0.00034929866475893
0.19761997878582
-0.00045164659910356
0.19764846468071
-0.0005550192438367
0.19768298329139
-0.00065931081159621
0.1977237436555
-0.00076450919058241
0.19777097569634
-0.00087061992605444
0.19782496305135
-0.00097779705332253
0.19788604464502
-0.00108613150867
0.19795462031353
-0.0011958125411327
0.19803109931829
-0.001306663747471
0.19811591168165
-0.0014187479969709
0.19820944340022
-0.0015315624877281
0.19831213248969
-0.0016455053949251
0.19842436533256
-0.0017598647269659
0.19854668997326
-0.0018759082954333
0.19867952531912
-0.0019920376355486
0.1988235872703
-0.0021108597813924
0.19897918160479
-0.0022282283432525
0.19914719132179
-0.0023497364587193
0.19932750103126
-0.002465813865021
0.19952136103916
-0.00258966796257
0.19972777641082
-0.0027000532106571
0.19994906262095
-0.0028280680375816
0.20018242712616
-0.002926013481533
0.20043270592591
-0.0030650411524676
0.20069339384676
-0.0031375948593099
-0.0033042826459648
0.20097531506331
0.18647310893136
-5.1286528029824e-05
0.1864788482055
-0.00015416120701492
0.1864888432634
-0.00025816591399756
0.18650349788593
-0.00036395334666409
0.18652313072497
-0.00047127949651806
0.18654799411518
-0.00057988269161685
0.18657831323926
-0.00068962999191381
0.18661431537906
-0.00080051138565954
0.18665625258401
-0.00091255718471545
0.18670443742226
-0.001025981944191
0.18675924632252
-0.001140940459842
0.18682112450124
-0.0012576907696572
0.18689053294996
-0.0013760722442632
0.18696795713241
-0.0014961722264648
0.1870538425412
-0.0016174479419131
0.18714869063149
-0.0017403535297514
0.18725295985879
-0.0018641339973137
0.18736727654375
-0.001990225022811
0.18749215299207
-0.0021169141249997
0.18762839908912
-0.0022471059191865
0.18777643705746
-0.0023762663512754
0.18793724587343
-0.0025105453142337
0.18811085675004
-0.0026394247803176
0.188298586123
-0.0027773973742762
0.18849966323228
-0.0029011303579694
0.18871637103146
-0.0030447758749628
0.18894632913398
-0.0031559716215702
0.18919410322361
-0.0033128152791752
0.18945395524177
-0.0033974469129215
-0.0035864174722225
0.18973609002915
0.17600689704395
-5.2734866017437e-05
0.17601151288895
-0.00015877710925915
0.17601968488964
-0.00026633797209374
0.17603184722967
-0.00037611574382441
0.17604833996928
-0.00048777229233685
0.17606943094386
-0.00060097372170034
0.17609535876181
-0.00071555786412364
0.17612636472731
-0.00083151740454091
0.17616271829769
-0.00094891080701319
0.17620475561613
-0.0010680193135341
0.17625288430274
-0.0011890691957582
0.17630758813436
-0.0013123946495665
0.17636937248979
-0.0014378566463535
0.1764387719281
-0.0015655717104928
0.17651628483847
-0.0016949608964637
0.17660247115084
-0.0018265398855044
0.17669785444566
-0.0019595173341186
0.17680313677394
-0.0020955073924817
0.17691891498752
-0.0022326923787501
0.1770460963566
-0.0023742873280429
0.17718520513896
-0.0025153751723894
0.17733733708365
-0.0026626772974992
0.17750263554909
-0.0028047232834796
0.17768255311585
-0.002957314978752
0.17787644293105
-0.0030950202101422
0.17808673860379
-0.0032550715847267
0.17831121567862
-0.0033804487326783
0.17855458674624
-0.0035561863825201
0.17881123738255
-0.0036540975833225
-0.0038667615540456
0.17909158142701
0.1661280868665
-5.3799804287156e-05
0.16613157562933
-0.00016226592707651
0.16613791122636
-0.00027267362431315
0.16614755222674
-0.00038575679914199
0.16616085503144
-0.00050107515111296
0.16617809848678
-0.0006182172304665
0.16619953020541
-0.00073698963499442
0.16622540080627
-0.0008573880567902
0.16625599191339
-0.00097950196411778
0.1662916570621
-0.0011036845112595
0.16633282789293
-0.0012302400740822
0.16638001867454
-0.0013595854776994
0.16643377074474
-0.0014916087615587
0.16649465918459
-0.001626460194467
0.16656322727924
-0.0017635290337943
0.1666400857618
-0.0019033984100069
0.16672581585062
-0.0020452474635532
0.16682118739781
-0.002190878979715
0.16692687453456
-0.0023383795543754
0.1670438748615
-0.0024912876934655
0.16717280940697
-0.0026443097553163
0.16731488703557
-0.0028047549633349
0.16747036149716
-0.0029601977814159
0.16764082479756
-0.0031277783154119
0.16782574800348
-0.0032799434515282
0.16802774539311
-0.0034570690097454
0.16824470801496
-0.0035974113890948
0.16848160122437
-0.0037930796258621
0.16873286026099
-0.0039053566522317
-0.0041429632268738
0.16900906189843
0.15680371726944
-5.4488433416936e-05
0.15680609657526
-0.00016464528585936
0.15681061735847
-0.00027719446068426
0.15681775626713
-0.0003928957606888
0.15682788077476
-0.00051119971076354
0.15684127608531
-0.00063161259232408
0.15685819428607
-0.00075390788586984
0.15687889041779
-0.00087808423770978
0.15690365279433
-0.0010042643884538
0.15693284567801
-0.0011328774417213
0.15696691700511
-0.0012643114464678
0.15700640257884
-0.0013990710957395
0.15705187040221
-0.0015370766277829
0.15710392631603
-0.0016785161502736
0.15716314913905
-0.0018227518974463
0.15723019060135
-0.0019704399122172
0.15730568047096
-0.002120737371817
0.157390446169
-0.0022756447158351
0.15748522935992
-0.0024331627822421
0.15759110745505
-0.0025971658250976
0.15770878990735
-0.0027619922431066
0.15783959137951
-0.0029355564706559
0.15798387239625
-0.0031044788324059
0.15814336230055
-0.0032872682537279
0.15831765253756
-0.0034542337216832
0.15850953485291
-0.0036489513580167
0.15871702282287
-0.0038048993910595
0.15894533855715
-0.0040213953914211
0.15918899492167
-0.0041490130464563
-0.0044126017084059
0.15945863337065
0.14800267695727
-5.4814508799025e-05
0.14800398375973
-0.00016595213989403
0.14800674356492
-0.00027995431765133
0.14801144454175
-0.000397596788883
0.1480184599861
-0.00051821520545319
0.14802807684273
-0.00064122949841213
0.14804054728333
-0.00076637837458346
0.14805612591492
-0.00089366291632757
0.14807510233029
-0.0010232408493049
0.14809784460651
-0.0011556197622902
0.14812480915546
-0.0012912760382096
0.14815654381622
-0.0014308057982372
0.1481936337408
-0.0015741665926573
0.14823670477667
-0.0017215872255411
0.14828636148917
-0.0018724086480351
0.14834328512119
-0.00202736358158
0.14840814362938
-0.0021855959161484
0.14848180919367
-0.0023493103156517
0.14856507992651
-0.0025164335494741
0.14865909941431
-0.0026911853467726
0.14876465372439
-0.0028675465860057
0.1488831527966
-0.0030540555752156
0.14901505421999
-0.0032363802871413
0.14916222305492
-0.0034344371195917
0.14932437210881
-0.0036163828055168
0.14950447297521
-0.0038290522539085
0.14970066564224
-0.0040010920865647
0.14991841494457
-0.0042391447213918
0.15015223266459
-0.0043828307926584
-0.0046731279533862
0.15041275888084
0.1396956001072
-5.4797403712958e-05
0.13969588859707
-0.00016624068153139
0.13969696917638
-0.00028103494896991
0.13969933588896
-0.00039996355279392
0.13970336277729
-0.00052224214377786
0.13970933395642
-0.00064720072628766
0.13971749764393
-0.00077454210919276
0.13972810344589
-0.00090426876396856
0.13974143731079
-0.0010365747581255
0.139757864188
-0.0011720466820421
0.13977784142007
-0.0013112533111349
0.13980191881165
-0.001454883229493
0.13983068960745
-0.0016029374266436
0.13986478797819
-0.0017556856335046
0.13990483536101
-0.0019124560667872
0.13995152917231
-0.0020740574280087
0.1400055661596
-0.00223963293738
0.14006784680344
-0.0024115909927266
0.14013921479336
-0.0025878015714877
0.140220862285
-0.0027728328698285
0.14031364002248
-0.0029603243537704
0.14041903740746
-0.0031594529898113
0.14053759531588
-0.0033549382240164
0.14067130066227
-0.0035681424937681
0.1408199838228
-0.0037650659926514
0.14098679592165
-0.003995864378612
0.14117004527806
-0.0041843414676439
0.1413754601903
-0.004444559657346
0.14159750122574
-0.0046048718504988
-0.0049221781281827
0.14184655137589
0.13185476767431
-5.4460397785552e-05
0.1318541055287
-0.00016557859102194
0.13185361198078
-0.00028054145671498
0.13185378102705
-0.00040013265373981
0.13185498292211
-0.00052344409174091
0.13185749504807
-0.00064971290337758
0.13186155811497
-0.00077860522513206
0.13186741220992
-0.00091012290612187
0.13187533520633
-0.0010444977996798
0.13188568236647
-0.001182393885673
0.13189890550109
-0.0013244764874202
0.13191554606462
-0.0014715238333501
0.13193619756563
-0.0016235889664651
0.13196148932866
-0.0017809774342941
0.1319920530351
-0.00194301980968
0.13202858554767
-0.0021105899761629
0.13207180716064
-0.0022828545847315
0.13212262336669
-0.0024624072323203
0.13218191965204
-0.002647097889162
0.13225090648046
-0.0028418197296898
0.13233050085339
-0.0030399187568487
0.13242223809808
-0.0032511902636958
0.13252674983832
-0.0034594499920494
0.13264610121022
-0.0036874938924456
0.13278024341454
-0.0038992082222816
0.13293241549255
-0.0041480364808048
0.13310123878019
-0.0043531647780143
0.13329231158917
-0.0046356324879386
0.13350140337117
-0.004813963652886
-0.0051574875883882
0.13373671280887
0.12445401518812
-5.3829301843836e-05
0.12445247852879
-0.00016404199533836
0.12445053355371
-0.00027859654666263
0.12444866711085
-0.00039826627487012
0.12444724081981
-0.00052201786250348
0.12444652305234
-0.00064899519540453
0.12444674474816
-0.00077882697792177
0.12444813243962
-0.00091151065230494
0.12445095160426
-0.0010473170167576
0.12445554098852
-0.0011869833205099
0.12446234063889
-0.0013312761864669
0.12447187351059
-0.0014810567523214
0.12448472794228
-0.001636443443911
0.12450151514908
-0.0017977646857554
0.12452287478296
-0.0019643794869293
0.12454948188532
-0.0021371971209359
0.12458208250319
-0.0023154552437446
0.12462154978038
-0.0025018745496772
0.12466882463896
-0.0026943727865253
0.12472507571578
-0.0028980708441368
0.12479132462064
-0.0031061676977525
0.12486906892611
-0.003328934603852
0.12495910290243
-0.0035494840012898
0.12506347927299
-0.0037918702944369
0.1251823434828
-0.0040180724616766
0.12531886678231
-0.0042845598083105
0.1254720311791
-0.0045063292009752
0.1256470253424
-0.0048106266760336
0.12584150067166
-0.0050084390056713
-0.0053777911894405
0.12606180424672
0.11746864715467
-5.2932744299253e-05
0.11746631878235
-0.00016171370175967
0.11746305810952
-0.0002753359549871
0.11745933649074
-0.00039454473636098
0.11745550258569
-0.0005181840353662
0.11745181528363
-0.00064530796861277
0.11744849320682
-0.0007755049736356
0.11744574680696
-0.00090876432250229
0.11744382741869
-0.0010453976962607
0.11744305204322
-0.0011862080109118
0.11744384151189
-0.0013320657192911
0.1174466894576
-0.0014839047607668
0.11745217262364
-0.0016419266713654
0.11746087204327
-0.0018064641656559
0.11747343645981
-0.0019769439625786
0.11749049861338
-0.0021542593325075
0.11751284083213
-0.0023377975192597
0.11754125569095
-0.0025302894639677
0.11757677428241
-0.0027298914319555
0.11762042347106
-0.002941720085092
0.11767342552451
-0.0031591698015884
0.11773705808921
-0.0033925672168694
0.11781246731868
-0.0036248932768909
0.11790146716661
-0.003880870186282
0.11800458790521
-0.004121193242003
0.11812508048333
-0.0044050524258968
0.11826144144477
-0.0046426901997543
0.11842009188123
-0.0049692771479055
0.1185959419717
-0.0051842891301639
-0.00558450865204
0.11880265939671
0.11087536079486
-5.1808724163678e-05
0.11087233561167
-0.00015868861704036
0.11086790632441
-0.0002709067693682
0.11086252122346
-0.00038915973629636
0.11085651692502
-0.00051217983537926
0.11085014425252
-0.00063893539190982
0.11084360380343
-0.00076896461759818
0.11083708759643
-0.00090224820633845
0.11083083284274
-0.0010391430312905
0.11082513166592
-0.0011805069213227
0.11082037971047
-0.0013273138495509
0.11081703597928
-0.0014805611142854
0.11081565864117
-0.0016405494167324
0.11081679054039
-0.0018075961475237
0.11082108468624
-0.0019812381898143
0.11082911599079
-0.0021622907175127
0.1108417068152
-0.0023503884225871
0.11085952825997
-0.0025481109863443
0.11088374153841
-0.0027541047859255
0.1109151207697
-0.0029730993899245
0.1109552405334
-0.0031992896359815
0.11100485925055
-0.0034421860020397
0.11106590003004
-0.0036859341211176
0.11113921445337
-0.0039541846716641
0.1112266282756
-0.0042086071232205
0.11133049271028
-0.0045089169170047
0.11145003984755
-0.0047622373904836
0.11159348025901
-0.0051127176106607
0.11174683769382
-0.0053376466143179
-0.005778487099753
0.11194081608644
0.10465216444523
-5.0507303391205e-05
0.10464856917709
-0.00015509346707916
0.10464312471673
-0.00026546242964078
0.10463626759043
-0.00038230272960265
0.10462833963549
-0.00050425199784896
0.10461958011449
-0.00063017598581998
0.10461015357009
-0.00075953818595388
0.10460024936342
-0.00089234411054159
0.10459009164176
-0.0010289854192094
0.10457993803713
-0.0011703534250962
0.10457014608775
-0.0013175220078395
0.104561136819
-0.0014715519523497
0.10455344640189
-0.0016328591058363
0.10454758849497
-0.0018017383458675
0.10454421651097
-0.0019778663102728
0.10454384965564
-0.0021619239653069
0.10454732783783
-0.0023538667066328
0.10455518196647
-0.0025559652148117
0.10456869186343
-0.0027676147805269
0.10458831532146
-0.0029927229423791
0.10461608980247
-0.0032270642079508
0.10465197481481
-0.0034780711009626
0.10469924113945
-0.0037332005283059
0.1047566206195
-0.0040115642301099
0.10482927734456
-0.0042812639233291
0.10491447013505
-0.0045941097788169
0.10501902504602
-0.0048667923696947
0.10514370185021
-0.0052373944800391
0.10528523905071
-0.0054791838783962
-0.0059544780748783
0.10546122995303
0.098778250657752
-4.9039809877141e-05
0.098774231855001
-0.0001510747950346
0.098767902117709
-0.00025913282470457
0.098759741306561
-0.00037414204994559
0.09875012864937
-0.00049463947033695
0.098739326389138
-0.00061937385369581
0.098727329042112
-0.00074754096561433
0.098714412576798
-0.00087942777124906
0.098700783935159
-0.0010153569030477
0.098686666439229
-0.0011562360547115
0.098672370525756
-0.0013032262197469
0.09865826262639
-0.0014574441785637
0.098644834880575
-0.0016194314852578
0.098632576081369
-0.0017894796717711
0.098622130350929
-0.0019674207040784
0.098613994385946
-0.0021537881238385
0.098608992272258
-0.0023488647147752
0.098607564976696
-0.0025545380392696
0.098611001090052
-0.002771051010684
0.098619530654762
-0.0030012526201208
0.09863545532597
-0.0032429889867672
0.098658096427419
-0.0035007123044282
0.098691919397903
-0.0037670235945599
0.098733425568191
-0.0040530704910303
0.098792069849714
-0.0043399082906483
0.098856992791249
-0.0046590328020831
0.098948761133075
-0.0049585607890765
0.099041349653898
-0.0053299830758317
0.099175696506659
-0.0056135308069755
0.099362149111661
-0.0061409307644045
0.39451404685434
0.0046555974530605
0.390017217165
0.0044968296480765
0.38568364606744
0.0043335710571873
0.38151770742902
0.0041659385982246
0.37752363688449
0.0039940705044768
0.37370552750887
0.0038181093352517
0.37006732133401
0.0036382061343338
0.36661280099335
0.003454520299584
0.36334558294971
0.0032672180022733
0.36026911293608
0.0030764699715572
0.35738666271675
0.00288245017687
0.35470132703001
0.0026853356434544
0.35221602015811
0.0024853068281375
0.3499334722295
0.0022825478839216
0.34785622553858
0.0020772466456804
0.34598663089917
0.0018695945931537
0.34432684405397
0.0016597867983303
0.34287882194307
0.0014480220629295
0.34164431895648
0.0012345029379694
0.3406248828352
0.0010194360714755
0.33982185029297
0.00080303249171592
0.33923634105964
0.00058550918156633
0.33886924749172
0.00036709351540714
0.33872119287855
0.0001480545593542
0.3387926451607
-7.1452336736794e-05
0.33908408468381
-0.00029143957901246
0.3395953743455
-0.00051128971833798
0.34032629241209
-0.00073091812449163
0.34127640358968
-0.00095011123612859
0.34244504730251
-0.0011686437724727
0.34383133762214