/*--------------------------------*- C++ -*----------------------------------*\
| =========                 |                                                 |
| \\      /  F ield         | OpenFOAM: The Open Source CFD Toolbox           |
|  \\    /   O peration     | Version:  2112                                  |
|   \\  /    A nd           | Website:  www.openfoam.com                      |
|    \\/     M anipulation  |                                                 |
\*---------------------------------------------------------------------------*/
FoamFile
{
    version     2.0;
    format      ascii;
    arch        "LSB;label=32;scalar=64";
    class       volScalarField;
    location    "7.5";
    object      p;
}
// * * * * * * * * * * * * * * * * * * * * * * * * * * * * * * * * * * * * * //

dimensions      [0 2 -2 0 0 0 0];

internalField   nonuniform List<scalar> 
22000
(
0.020973163036497
0.020951738748613
0.020907400726178
0.020839063320183
0.020746246099359
0.02062900917042
0.020487646580931
0.020322480956046
0.020133776756213
0.019921746431001
0.019686596042942
0.0194285669587
0.019147943717498
0.018845056557088
0.018520268372354
0.018173984834986
0.017806631670053
0.017418679913251
0.017010601592003
0.016582932761234
0.016136182447446
0.015670973530763
0.015187843447597
0.014687542789904
0.014170596466473
0.013637941713765
0.013089984263507
0.012527963285239
0.011951932698876
0.011363645298068
0.021375355363712
0.021352688145633
0.02130671588347
0.021236478091025
0.021141466382007
0.021021666914133
0.020877316852012
0.020708709831045
0.02051609836353
0.02029969073255
0.020059690093072
0.019796334064418
0.019509899026465
0.019200703930917
0.018869093523713
0.018515454813312
0.018140190789009
0.017743759682297
0.017326618165029
0.016889305751864
0.016432320412232
0.015956302510439
0.015461765053232
0.014949491261614
0.014419946203002
0.013874136966062
0.013312334732158
0.012735926548014
0.012144647271319
0.011540505737966
0.022114089626915
0.022090471727713
0.022042667822553
0.021969765855212
0.021871288374147
0.021747220923566
0.02159778005419
0.021423234189515
0.021223812830896
0.020999704538054
0.020751092470916
0.02047819431163
0.020181264347397
0.019860601320177
0.01951652706012
0.019149410704427
0.018759632489692
0.018347639272823
0.017913864841785
0.017458849473146
0.016983063654818
0.016487171605398
0.015971641808945
0.015437328319653
0.014884603768225
0.014314646544147
0.013727507371383
0.013124944454652
0.012506119274261
0.011873692010369
0.02314382999749
0.023119147482135
0.02306918847025
0.022993008198975
0.022890117961314
0.022760501849878
0.022604368816775
0.022421969708068
0.022213507600221
0.021979140765128
0.021719019792393
0.021433330959246
0.021122294692225
0.020786177476798
0.020425264080798
0.020039892447221
0.019630404365371
0.019197223013244
0.018740742668981
0.018261496445816
0.017759908890038
0.017236669406891
0.01669217661331
0.01612737565032
0.015542499177997
0.014938954328926
0.014316458208114
0.013677262608994
0.013019659420138
0.012347170815805
0.02442530823721
0.024399414835297
0.024346995281494
0.024267057413642
0.024159086611411
0.024023054768078
0.023859155236654
0.023667613006795
0.023448593604121
0.023202210909184
0.022928566463344
0.022627797671647
0.022300072604841
0.021945607062976
0.021564629231231
0.0211574271882
0.020724283763273
0.020265580621603
0.019781650648388
0.019273004901637
0.018739997039392
0.018183334495533
0.017603313195538
0.017000979971297
0.016376372222974
0.015731176718698
0.015064663679362
0.014379715288238
0.013673493495099
0.012950663707369
0.025924074443942
0.025896900093912
0.025841873789074
0.02575795150536
0.025644585603052
0.025501724961426
0.025329533886134
0.025128197096718
0.024897827396834
0.024638477877274
0.024350182693741
0.024033010281694
0.023687054370154
0.023312456903237
0.022909364603371
0.022477990487746
0.022018531245843
0.021531301184104
0.021016542248108
0.020474719367231
0.019906082370115
0.019311339748527
0.018690643802657
0.018045144664165
0.017374623166052
0.016681090346027
0.015963253075724
0.015224757929336
0.014461368519122
0.013679152614448
0.027609047878148
0.027580611141945
0.027523009899215
0.027435145569628
0.027316431623194
0.027166783742384
0.026986323336255
0.026775178797512
0.02653339250142
0.02626093717312
0.025957757671158
0.025623829102747
0.025259144196101
0.024863742446128
0.024437658641004
0.023980998965908
0.023493840184496
0.022976395523022
0.02242877897712
0.021851376318973
0.021244292364706
0.020608209884249
0.019943088254495
0.019250171828114
0.018528913704678
0.017781682894754
0.017006494189251
0.016207876996968
0.015379908286546
0.014530284922812
0.029451410643959
0.029421817205906
0.029361848534175
0.02927035115495
0.02914669460925
0.02899075057517
0.028802582438014
0.028582244503039
0.028329689029065
0.028044786411439
0.027727367683548
0.027377287231494
0.026994406936451
0.026578631285167
0.026129848286117
0.025648019897199
0.025133063262085
0.024585049433118
0.024003920049908
0.023389939457813
0.022743017315781
0.022063772724493
0.021351911594995
0.020608751027862
0.019833332747326
0.019028402923565
0.018191140662438
0.017327061526927
0.016428250953022
0.015504232112087
0.031423931642511
0.031393369767728
0.031331408890014
0.031236842147516
0.031108990295282
0.030947669563433
0.030752869570806
0.030524552315218
0.030262559770298
0.029966637162745
0.029636476005842
0.029271780819348
0.02887225064828
0.028437619275737
0.027967589466718
0.027461936682179
0.02692037346395
0.026342780699811
0.025728876008293
0.025078750937708
0.024392060346815
0.023669310455755
0.022909881935113
0.02211512945389
0.021283585665228
0.020418378724306
0.019515694208733
0.018582118566065
0.017607425262566
0.016603118218103
0.033500619580017
0.033469353184225
0.033405929033982
0.033309089827134
0.033178103154392
0.03301271863602
0.032812837053647
0.032578310605491
0.032308851348033
0.032004056672417
0.031663452898968
0.031286565068021
0.030872896610254
0.03042197325288
0.029933272018479
0.029406336389549
0.028840625556359
0.028235776879362
0.027591226191422
0.026906832874519
0.026181928734308
0.025416847129853
0.024610559838205
0.02376441079021
0.022876312371986
0.021949761973024
0.020979778350919
0.019974079949064
0.018919790901705
0.017830491505429
0.035656612665118
0.035624971530571
0.035560747775319
0.035462636961222
0.03532984954476
0.035162058750337
0.034959063497053
0.034720590593708
0.034446204173544
0.034135332626482
0.033787313064376
0.033401462812389
0.032977058051647
0.032513379498902
0.03200963795749
0.031465098360414
0.030878916037563
0.030250428108569
0.029578726517833
0.028863372934346
0.028103300263064
0.02729859948129
0.026447739304301
0.025551990476664
0.02460851942805
0.023621161392456
0.022583580242871
0.021504656489465
0.020368513535204
0.019190830022694
0.037868228615721
0.037836595438852
0.037772346196993
0.037674131548346
0.037541101227108
0.037372844719097
0.037169049309578
0.036929303736628
0.036653009089492
0.036339406750695
0.035987624101752
0.035596745835401
0.035165792387063
0.034693765104922
0.03417957038946
0.033622149408528
0.033020303782383
0.032373012903895
0.031678960748361
0.030937341882438
0.030146609126636
0.02930653370944
0.028414977457235
0.027473062718481
0.02647707234071
0.025431125896461
0.024327331051188
0.023175724379306
0.021957065897634
0.020689064351642
0.040113119720206
0.040081913176064
0.040018490247396
0.03992145916263
0.039789907860475
0.039623337954559
0.039421318198204
0.039183289619029
0.038908479065356
0.038595927640366
0.03824453768415
0.037853141508744
0.037420480471538
0.036945247102924
0.036426009937155
0.0358613452728
0.03524965460494
0.034589504364537
0.033879107515046
0.033117221421823
0.032301735121664
0.031432017553949
0.030505213662153
0.029522209783483
0.028478257184232
0.027377684482373
0.026210832776396
0.024988845234135
0.023688751097874
0.022330115769341
0.042370479746164
0.042340140468168
0.042278434619302
0.0421839392143
0.04205568496371
0.04189308455872
0.041695584388117
0.041462471900583
0.041192793115598
0.040885380768432
0.040538902994648
0.040151926687615
0.039722897892598
0.039250178066396
0.038731971583057
0.038166455634818
0.037551591528793
0.03688548306659
0.036165813601528
0.035390836003202
0.034557793311815
0.033665567784925
0.032710474700203
0.03169306733615
0.030607412092736
0.029457946730742
0.028233030802249
0.026944817986344
0.025566241820819
0.024118432097927
0.044621211838805
0.044592185548998
0.044533098548
0.044442512338475
0.044319408832171
0.04416311328843
0.043972948942503
0.043748048785607
0.043487278220612
0.043189261089704
0.042852429154145
0.042475077882059
0.042055349954789
0.041591262551701
0.041080639014162
0.040521232682276
0.039910533820661
0.039246142718504
0.038525162529112
0.037745281041429
0.036903018653369
0.03599668876586
0.035021667410404
0.033978071195341
0.032858628684795
0.031667764908701
0.030391644402657
0.029043280688439
0.027591158132171
0.026057550916234
0.04684809923749
0.046820822465705
0.04676523952757
0.046679914297438
0.046563790725109
0.046416111383907
0.046236079849564
0.046022678933412
0.04577459955193
0.045490263096064
0.045167871435307
0.044805452276545
0.044400845854748
0.043951721509301
0.043455515455993
0.042909544196511
0.042310807962778
0.041656374643407
0.040942728078212
0.040166941041569
0.039324744665478
0.038413807656861
0.037428464695008
0.036368290266064
0.035224531448049
0.034001460417216
0.032682846507034
0.031282358820899
0.029763692900017
0.028149702620523
0.049035937761012
0.04901082487891
0.048959588174817
0.048880813105829
0.048773418719103
0.048636572707022
0.048469366644908
0.048270642722881
0.048038929512703
0.047772459302661
0.04746921808969
0.04712697845908
0.046743290024545
0.046315482477456
0.045840609931574
0.045315552026141
0.044736813511895
0.04410091609928
0.043403699594633
0.042641587012507
0.041809467536744
0.040904301442982
0.039919292122126
0.038853367530278
0.037696160540097
0.036451637890117
0.035101002657019
0.033658338630257
0.032082249080938
0.030395448365318
0.051171612245723
0.051149043219291
0.051102927865974
0.051031894239662
0.050934850878845
0.050810900641513
0.050659034328234
0.050477967938054
0.050266085622133
0.050021450680891
0.049741854566434
0.049424835939159
0.049067674530863
0.048667380218393
0.048220642821305
0.047723919362097
0.047173227258353
0.046564546252247
0.045893063389137
0.045154537788282
0.04434298005885
0.043454599355673
0.042481393223216
0.041421552408693
0.0402629722084
0.039009143065671
0.037638547461321
0.036165419041231
0.034543066494934
0.032793252374049
0.053244114980102
0.053224427007075
0.053184121385012
0.05312189121877
0.053036651995498
0.052927455219188
0.052793205146773
0.052632508880489
0.052443627326409
0.052224480276683
0.051972693105367
0.051685600890528
0.051360243322311
0.050993341227802
0.050581248017722
0.050120027597642
0.049605230982315
0.049032319564439
0.048395833572851
0.047690881479313
0.046910572657596
0.046050356375683
0.045100959885472
0.044059788204229
0.042912885710154
0.041663111028075
0.04028605074617
0.038795720529352
0.037140063602919
0.035339004783789
0.055244500811688
0.055227988790701
0.055194089419008
0.055141577933051
0.055069394143991
0.054976558247633
0.05486190987347
0.054723969839677
0.05456089979965
0.054370503513384
0.054150271120415
0.053897369682714
0.053608636250326
0.053280544962963
0.05290915222498
0.052490173678287
0.052018728125324
0.051489803768898
0.050897311944456
0.050235754347328
0.049497324718725
0.048676753022845
0.047763418786626
0.046753970562122
0.045632459032376
0.044401097037885
0.04303236639318
0.0415396256044
0.039865252551499
0.038026136470547
0.05716577484987
0.057152695299657
0.057125717016107
0.057083702495012
0.05702562763468
0.056950500589098
0.056857118754579
0.056743943444207
0.056609070806967
0.056450228280028
0.056264810128043
0.056049853491286
0.0558020311785
0.055517614593305
0.055192407940364
0.054821831925527
0.054400624699524
0.053923366796504
0.05338338728535
0.052774654027679
0.052088455817187
0.051318893177945
0.050453908521383
0.049489525742797
0.048407509806314
0.047209714832122
0.045865085174838
0.044386567758171
0.042709960244643
0.040844966653364
0.059002751752879
0.058993295710315
0.058973649100318
0.058942766521474
0.058899678532598
0.058843396493549
0.058772681362661
0.058685944173457
0.058581237914502
0.058456256184201
0.058308351825124
0.058134487689369
0.057931231413538
0.057694708514344
0.057420527226474
0.057103852755971
0.056739102233214
0.056320491490113
0.055840859950204
0.055293694658514
0.054669509992357
0.053961836185572
0.053157253050615
0.052251250556805
0.05122307818285
0.050074556907818
0.048770173944373
0.047324477775928
0.045664547450494
0.043796027740964
0.060751986191304
0.06074617766859
0.060734030808368
0.060714636519665
0.060687131961865
0.060650543364402
0.060603590395854
0.060544643792839
0.060471727800689
0.060382516692389
0.060274336899302
0.060144102982043
0.059988329125126
0.059803056783282
0.059583800414344
0.059325529157088
0.059022460116066
0.058668435439064
0.058255957261946
0.057777893298135
0.057224333821725
0.056587910356413
0.055854602728848
0.055018556265875
0.05405785282683
0.052972620490479
0.05172398946638
0.050325856360115
0.048698212583318
0.046848333597728
0.062411912380941
0.062409509927405
0.062404540216104
0.062396437215035
0.062384521596053
0.062367796012137
0.062344937035456
0.06231429939435
0.062273962453782
0.062221655154043
0.062154713753807
0.062070001875377
0.06196398244573
0.061832580708582
0.061671137127605
0.061474403936517
0.061236561392463
0.060951099382147
0.060610505930786
0.060206735516754
0.05973010625204
0.059171179266154
0.058516994369926
0.057757568313413
0.056874640077586
0.055859438355568
0.054681269351007
0.053332209562722
0.051743036016751
0.049889860084336
0.063983320190667
0.063984182807916
0.06398576334768
0.063988410290472
0.06399161133794
0.063994197145325
0.063994873293737
0.063992068764762
0.06398397406875
0.063968416802499
0.063942898484097
0.063904459510155
0.063849640463628
0.063774236408033
0.063673504547224
0.063541935583966
0.063373433080991
0.063160939178377
0.062897057641075
0.062572845239868
0.062179325749732
0.061704417189837
0.061138202228071
0.060463678388808
0.059671225907599
0.058734642385397
0.057649864136942
0.056364681290654
0.054855790959609
0.052921832821798
0.010799554755483
0.010262274663074
0.0097160445223186
0.009161936763699
0.0086008361658908
0.0080334376347143
0.007460354056875
0.0068822063128314
0.0062996530968565
0.0057133849210044
0.0051241118797626
0.0045325559067122
0.0039394479547178
0.0033455256426645
0.0027515309103231
0.0021582068408236
0.0015662959533308
0.00097653780692254
0.00038966806169659
-0.00019358341831919
-0.00077249044146415
-0.0013463220578855
-0.0019143200626047
-0.0024756593765903
-0.0030293837494207
-0.0035754469138784
-0.004113414742128
-0.0046425945926459
-0.0051622475968048
-0.0056717146559151
-0.0061704308219767
-0.0066578880164169
-0.007133607681319
-0.007597129186928
-0.0080480164003644
-0.0084858547386902
-0.0089102649728198
-0.0093208869685201
-0.0097174038647023
-0.010099500922074
-0.010466924788384
-0.010819391027684
-0.011156723969091
-0.011478644887879
-0.011785099809386
-0.012075768853008
-0.012350832731915
-0.012609839499184
-0.012853488056045
-0.01308108051731
0.010963989375623
0.01041779453745
0.0098616675825097
0.0092975150671574
0.008726541717805
0.0081493690188589
0.0075664076038193
0.0069781176609462
0.0063850746738933
0.0057879409444296
0.0051874240376407
0.0045842513868111
0.0039791609913836
0.0033728997390721
0.0027662227134978
0.0021598930068972
0.0015546814509016
0.00095136746283869
0.00035073820151333
-0.00024641495384606
-0.00083930359030529
-0.0014271649651191
-0.0020093086505602
-0.00258520430479
-0.0031546157764992
-0.0037160923691342
-0.004268684699265
-0.0048117754484853
-0.0053448758663669
-0.005867479793167
-0.0063790299917811
-0.006878954067439
-0.0073667092928717
-0.0078417860777805
-0.00830371749398
-0.0087520590456111
-0.0091864157488061
-0.0096063985972441
-0.010011691103204
-0.010401949773674
-0.01077695515596
-0.011136382429642
-0.011480145508728
-0.01180787806083
-0.012119709111238
-0.01241509218818
-0.012694537393177
-0.012956965094566
-0.013203500666639
-0.013431433092944
0.011272141241385
0.010703077763486
0.010121691948702
0.0095318825074736
0.0089358047895648
0.0083341150574413
0.0077269091602138
0.0071143858871926
0.0064970143510404
0.0058754612540878
0.0052504820905143
0.0046228527859261
0.0039933467646091
0.0033627352686336
0.0027317928723557
0.0021013006611146
0.0014720485509606
0.000844833762961
0.00022045682557442
-0.00040028960713921
-0.0010166222340359
-0.0016277638870224
-0.0022329225248215
-0.0028311652578363
-0.0034214315277037
-0.0040033528509053
-0.0045763661267238
-0.0051397163938498
-0.0056926727418908
-0.0062345855626607
-0.0067648504245673
-0.0072828906299405
-0.0077881708860707
-0.0082801778564872
-0.0087584469598169
-0.0092225266264944
-0.0096720412954965
-0.01010659789914
-0.010525927138988
-0.010929667090055
-0.011317688085314
-0.011689600306015
-0.012045490964024
-0.012384813971206
-0.012708039787305
-0.013014172053678
-0.013304383918943
-0.013576455637058
-0.0138325387393
-0.014066316418863
0.011708571539703
0.011103552713809
0.010482915587228
0.0098538107191984
0.0092198351630913
0.0085816135326877
0.007938695149157
0.0072908551271558
0.0066383998247888
0.0059820034810054
0.0053224839774413
0.0046606692494695
0.0039973585188136
0.0033333305326554
0.0026693598887526
0.0020062280097177
0.0013447292021262
0.00068567367131562
2.9883527325478e-05
-0.00062181013626076
-0.0012685769095027
-0.001909590062719
-0.0025440266161155
-0.0031711626904903
-0.003790127468377
-0.0044002493357625
-0.0050007186836085
-0.0055908844505087
-0.0061701052283649
-0.0067377171068205
-0.0072931022874928
-0.007835681524712
-0.0083649219469336
-0.0088803080206639
-0.0093813943642681
-0.0098677323635093
-0.01033898372435
-0.010794748100317
-0.011234825229652
-0.011658816102537
-0.012066721603229
-0.012458038720227
-0.012833108660823
-0.013191091908368
-0.013532962603966
-0.013857006875024
-0.014165365482165
-0.014453983423699
-0.014726409162277
-0.014970483219052
0.012264725356472
0.011612327442251
0.010939996316704
0.010259445168465
0.0095761862329097
0.0088906974092631
0.0082017166119237
0.0075084307295058
0.0068109428353565
0.0061099546830612
0.0054063726252484
0.0047010868217756
0.0039949180848579
0.0032886430159273
0.0025830274316608
0.0018788459736499
0.0011768923997139
0.00047798329594906
-0.00021704727499232
-0.00090735859206082
-0.001592114889709
-0.0022704915330013
-0.0029416839243459
-0.0036049095479112
-0.0042595314719028
-0.0049045578170151
-0.0055392493473281
-0.0061629337731672
-0.006774961035775
-0.0073746931058637
-0.0079615282238312
-0.0085348848280034
-0.0090942414153553
-0.009639089027783
-0.010169013858132
-0.010683570397844
-0.011182472381631
-0.011665304677926
-0.012131962190508
-0.012581986804881
-0.013015560054602
-0.013432008505771
-0.013832024691272
-0.014214341167858
-0.014580628817291
-0.014928157493554
-0.015260411236782
-0.015570807532183
-0.015864892075665
-0.016122630318354
0.012936765092173
0.012226388378127
0.011490498940301
0.01074687554464
0.010003471664196
0.0092604759512243
0.0085155199149288
0.0077670358293976
0.0070149011895246
0.0062598854496679
0.0055030206502679
0.0047452728827357
0.0039874819842862
0.0032304145119728
0.0024748201714259
0.0017214608425591
0.00097112259093085
0.000224619684955
-0.00051721224461262
-0.0012535303370848
-0.0019834970611331
-0.0027062835209859
-0.0034210732305348
-0.004127063645174
-0.0048234985831373
-0.0055095610039587
-0.0061845146282697
-0.0068476614948808
-0.0074983416306648
-0.0081359188088893
-0.0087598062533103
-0.0093694360648881
-0.0099643179752357
-0.010543956771828
-0.011107983484707
-0.011655957766596
-0.012187672046926
-0.012702693168964
-0.013201054695578
-0.013682216199891
-0.014146615268035
-0.014593343380728
-0.015023581776328
-0.01543548464266
-0.015831677378487
-0.016208081371159
-0.016569996315412
-0.016907552002295
-0.017228997202135
-0.017504215565893
0.013723233149032
0.012944730877609
0.012133661812948
0.011315618080805
0.010501566437971
0.0096912084600696
0.0088807199279062
0.008067597738866
0.0072514847425371
0.0064332752091655
0.0056141736274212
0.0047952371954257
0.0039773191851664
0.0031611665853859
0.00234750712369
0.0015370870635616
0.00073068343218538
-7.0892479406773e-05
-0.00086680348114818
-0.0016562034125441
-0.0024382517194292
-0.0032121179304712
-0.0039769855741318
-0.0047320559890688
-0.0054765716097514
-0.0062097476470998
-0.0069308574547036
-0.0076392081582378
-0.0083341519044123
-0.009015066780333
-0.0096813951800375
-0.010332592675842
-0.010968213418022
-0.011587781460785
-0.012190995401955
-0.012777422410496
-0.013346966210474
-0.01389916512385
-0.014434248172304
-0.014951555902714
-0.015451882188819
-0.015933992946026
-0.016399741065938
-0.016846503954225
-0.01727819346311
-0.0176889704231
-0.018086533163281
-0.018456826529339
-0.018811621719223
-0.01910821158237
0.014625178807696
0.013768703174825
0.012870873409225
0.011967148897033
0.011072141151576
0.010184797308093
0.0092994204855665
0.0084123731606773
0.0075230698091318
0.0066326071043579
0.0057424181363709
0.0048536659566087
0.0039672097512548
0.0030837669211895
0.0022040389700469
0.0013287572825695
0.00045869100542612
-0.00040535175836082
-0.0012625335580178
-0.0021120076978341
-0.0029529358479283
-0.0037844930990163
-0.004605870853032
-0.0054162795514428
-0.0062149661465149
-0.0070011676251885
-0.0077741750402093
-0.0085333131092694
-0.0092779599272913
-0.010007519511399
-0.010721475874065
-0.011419312970726
-0.012100645649081
-0.012765023618559
-0.01341223900997
-0.014041864299647
-0.014653959577106
-0.015248014920572
-0.015824531964595
-0.016382676634482
-0.016923738177704
-0.017446032419836
-0.017952331416017
-0.018438981738876
-0.018911617433319
-0.019362135316165
-0.019801365795374
-0.020210034399224
-0.020604451925532
-0.020926623955337
0.015645615949589
0.014701482434629
0.013705171259423
0.012704427496079
0.011718206216458
0.01074435027777
0.009774795300576
0.0088045507347999
0.0078328277604154
0.0068610258181984
0.0058908741821143
0.0049236571887475
0.0039602281144197
0.0030012628405339
0.0020474342495145
0.0010994623909933
0.00015811300287319
-0.00077580653320126
-0.0017014585810238
-0.0026179973548442
-0.0035245885380121
-0.0044204146015438
-0.0053046769534024
-0.0061765976809787
-0.007035435775987
-0.0078804529629596
-0.0087109649363856
-0.0095263224479845
-0.010325942335664
-0.011109263418482
-0.011875825121602
-0.01262514946649
-0.013356933885611
-0.014070757101382
-0.014766542434351
-0.015443860418067
-0.016102988361547
-0.016743333477497
-0.017365780797489
-0.017969236715964
-0.01855568315728
-0.019122806785539
-0.019674642700052
-0.020206160500584
-0.020725294970411
-0.021221044523858
-0.021708300004203
-0.022161363298995
-0.022602311012557
-0.022954896624536
0.016789030044762
0.015747621098563
0.014640839051068
0.013531551751517
0.012443822490076
0.011373938629102
0.010310887722124
0.0092480918325566
0.0081846084246411
0.0071222659460776
0.0060631676267721
0.005008732832853
0.0039597942305422
0.0029169734725645
0.0018809142686487
0.00085233297263407
-0.00016800006122597
-0.0011792734848289
-0.0021806472196278
-0.0031712755091344
-0.0041503279584669
-0.0051169950482681
-0.0060704899085339
-0.0070100498285696
-0.0079349525260199
-0.0088444871612233
-0.0097380023247505
-0.010614883475242
-0.011474596212908
-0.012316624502925
-0.01314058246701
-0.01394603800205
-0.014732800809498
-0.015500480633002
-0.01624917889912
-0.016978443972016
-0.017688859584979
-0.018379689820146
-0.019052362573748
-0.019705388602431
-0.020341724824879
-0.020958164640424
-0.021560486834488
-0.022141811997906
-0.022713159879359
-0.023259819710131
-0.023801938463726
-0.024305975824997
-0.024801242018371
-0.025190027960702
0.018060922429007
0.016912634382806
0.015683049302887
0.014453460418183
0.013253857050241
0.012078396380769
0.010912446438237
0.0097475992648158
0.0085828409165461
0.0074205832466373
0.0062633901828375
0.0051128268614654
0.0039696855515008
0.0028345208782999
0.0017079509483627
0.00059070048919874
-0.0005164435361895
-0.0016126577907479
-0.002697095600235
-0.0037689090470852
-0.0048272701829506
-0.005871376981672
-0.0069004549694323
-0.007913758818469
-0.0089105891694421
-0.0098902668167033
-0.010852179746522
-0.011795756547817
-0.012720526428729
-0.013626028601331
-0.014511972522934
-0.015377981683969
-0.01622401482688
-0.017049706759782
-0.017855407119417
-0.018640605531539
-0.019406317282254
-0.020151561323957
-0.020878539147195
-0.021585152686544
-0.0222757365412
-0.022945802906312
-0.023603545803893
-0.024239584674135
-0.024869080429495
-0.025472577282025
-0.026077016644823
-0.026639370570712
-0.027197969753215
-0.027630235480652
0.019467363246627
0.018202594947721
0.016837515451602
0.015475644737072
0.014153743128669
0.012863113521856
0.011584742761251
0.010308157153554
0.0090323971229363
0.0077606415060395
0.0064960068208188
0.0052402086083053
0.003993975205451
0.0027577830755944
0.0015322335788813
0.00031807824630586
-0.00088386290485954
-0.0020727441082848
-0.0032477058757623
-0.0044078938197781
-0.0055524789992407
-0.0066806646070931
-0.0077916871762156
-0.0088848190755138
-0.0099593861810736
-0.011014744819177
-0.012050330937573
-0.01306562578172
-0.01406023495883
-0.015033764383916
-0.015986046304826
-0.016916765480856
-0.017826080191327
-0.018713640577818
-0.019580138913504
-0.02042494462818
-0.021249688621811
-0.022052986270005
-0.022838140786487
-0.02360212931235
-0.024351215083444
-0.025079092036582
-0.02579724231044
-0.026492946701713
-0.027186839715783
-0.027853455483344
-0.028528419308644
-0.029157350956859
-0.029789645917685
-0.030274464471998
0.021014549566003
0.01962372377011
0.018110135742914
0.016603849914878
0.015149226810024
0.013733813434427
0.012333371730185
0.010935154250423
0.0095384370845164
0.008147379282714
0.0067657422827638
0.0053953879760682
0.0040369538021628
0.0026908313281373
0.0013576216511009
3.8128079493499e-05
-0.0012667750994123
-0.0025562057460025
-0.0038292825389873
-0.0050851377819974
-0.0063229355045955
-0.0075418793847304
-0.0087412138030578
-0.0099202276052921
-0.011078272990749
-0.012214744903851
-0.013329134229847
-0.014420984204094
-0.015489995453968
-0.016535850847983
-0.017558535413282
-0.018557802716819
-0.019534073175732
-0.020486990673261
-0.02141771960735
-0.022325423959009
-0.023212597916448
-0.024077238581347
-0.02492419322771
-0.025749108761045
-0.026560868947187
-0.027350729534017
-0.028134427267487
-0.028895079560437
-0.029660115242946
-0.030396938201067
-0.031151748739102
-0.031857035147778
-0.032575312240235
-0.033124053953733
0.022708351859312
0.021181974874681
0.019506641222606
0.017843785903433
0.016246121953204
0.014696332808584
0.013164049369332
0.011634102386063
0.010106254939218
0.0085858829050397
0.0070774748756976
0.0055830227884843
0.0041030465931967
0.0026378564360566
0.0011880811608183
-0.00024539164321473
-0.0016616082851871
-0.0030596334714321
-0.004438551749961
-0.0057974713760132
-0.007135539835302
-0.0084519534345235
-0.009745958486732
-0.011016856911068
-0.012264028106434
-0.013486908273942
-0.014685052014249
-0.015858071674178
-0.017005779553389
-0.018127946870588
-0.019224751580923
-0.020296019329547
-0.02134250732339
-0.022363830980901
-0.023361774665916
-0.024335197677192
-0.02528774891369
-0.02621656783022
-0.027128550654067
-0.028017597392442
-0.028895939451357
-0.029751915536401
-0.030606274159532
-0.031437772076853
-0.032281051737365
-0.033096768379382
-0.033941794299003
-0.034736062343312
-0.035555411772892
-0.03618374051067
0.024553871012365
0.022882617119705
0.021032238880186
0.019200838783485
0.017450070650967
0.015756410440655
0.014082420639204
0.012410461441826
0.010741119754701
0.0090812447458792
0.0074361143177865
0.0058078155562016
0.0041967262325946
0.0026030939910737
0.0010276189576047
-0.00052868445806181
-0.0020647531611271
-0.003579578743517
-0.0050721956070925
-0.0065416730674464
-0.0079871286585387
-0.0094077395341774
-0.010802745642825
-0.01217145540821
-0.013513273201154
-0.014827677357019
-0.016114298547969
-0.017372825258632
-0.018603201855973
-0.019805296214589
-0.020979522718002
-0.022125791438053
-0.02324527545752
-0.024337550824201
-0.025405166998695
-0.026446623100385
-0.027466975031083
-0.02846235692635
-0.029442110598485
-0.030398152260579
-0.031346526093326
-0.032272583796989
-0.033202200280138
-0.034110828283047
-0.03503885727361
-0.035944136086548
-0.036889045555435
-0.037788827877538
-0.0387236457041
-0.039455112034242
0.026555021208046
0.024729834559751
0.022691269799196
0.020679789866936
0.018766301498436
0.016919467019946
0.015093859768287
0.013269468137491
0.01144813562022
0.0096384436707256
0.007846488715598
0.0060744039641116
0.0043224118180822
0.0025907374920489
0.00088021227839891
-0.00080797315796226
-0.0024726127598534
-0.0041126001390561
-0.0057268978577763
-0.0073145144868575
-0.0088745176563095
-0.010406047316634
-0.01190832584906
-0.013380662030844
-0.014822482516103
-0.016233304420174
-0.017612844624567
-0.018960874317343
-0.020277493003735
-0.021562681690363
-0.022817136939527
-0.024040878894162
-0.025235562485331
-0.026400774286162
-0.027539913677333
-0.028651214921444
-0.029741221032972
-0.030805280312445
-0.031855153888073
-0.032881251020837
-0.033903084995894
-0.034903966739555
-0.03591383742165
-0.036906963738511
-0.037926451429268
-0.038933878564834
-0.039987761658152
-0.041016039937941
-0.04207458359228
-0.04292406624022
0.028714162269388
0.026726369985222
0.024486897384488
0.022284555700882
0.020199405519328
0.018190397109323
0.016203269520429
0.014215947881378
0.012232078182374
0.01026221801124
0.0083132545647329
0.0063872942616614
0.0044844125011393
0.0026048866893792
0.00074976012198592
-0.001079542792826
-0.0028816367219112
-0.0046552887121801
-0.0063993608890756
-0.0081127726716859
-0.0097945147456867
-0.011443662673097
-0.013059401315158