/*--------------------------------*- C++ -*----------------------------------*\
| =========                 |                                                 |
| \\      /  F ield         | OpenFOAM: The Open Source CFD Toolbox           |
|  \\    /   O peration     | Version:  2112                                  |
|   \\  /    A nd           | Website:  www.openfoam.com                      |
|    \\/     M anipulation  |                                                 |
\*---------------------------------------------------------------------------*/
FoamFile
{
    version     2.0;
    format      ascii;
    arch        "LSB;label=32;scalar=64";
    class       surfaceScalarField;
    location    "7.5";
    object      phi;
}
// * * * * * * * * * * * * * * * * * * * * * * * * * * * * * * * * * * * * * //

dimensions      [0 3 -1 0 0 0 0];

oriented        oriented;

internalField   nonuniform List<scalar> 
43645
(
0.39512362624444
-4.7532174552643e-06
0.39513785108871
-1.4224888164504e-05
0.39516154099958
-2.3689958295681e-05
0.39519463620674
-3.3095256159863e-05
0.39523707624157
-4.2440084055249e-05
0.39528880775849
-5.17315657325e-05
0.39534977571026
-6.0967999715885e-05
0.39541992386031
-7.0148197065414e-05
0.39549918976407
-7.9265949654611e-05
0.39558749475374
-8.8305034529481e-05
0.39568471577558
-9.7221065532304e-05
0.39579068602335
-0.00010597029042825
0.39590519861124
-0.00011451262936633
0.3960280761891
-0.00012287761832576
0.39615919074489
-0.00013111459509214
0.39629855711416
-0.00013936640762423
0.39644626161302
-0.00014770453610392
0.39660256172312
-0.00015630014647014
0.39676766105271
-0.0001650993649215
0.3969419424296
-0.00017428141146198
0.39712552763828
-0.0001835852422952
0.39731889242599
-0.00019336482068302
0.39752196228858
-0.00020306989469494
0.39773551365995
-0.00021355140294037
0.39795915668697
-0.00022364305781308
0.398194363446
-0.00023520678937283
0.39843997852561
-0.00024561510924969
0.3986987806015
-0.00025880210476439
0.3989677082291
-0.00026892765525904
-0.00028436557682653
0.39925207377821
0.37294701461491
-9.2131554610099e-06
0.37296045197492
-2.7662316955649e-05
0.37298298138701
-4.621944036571e-05
0.37301454872296
-6.4662662046497e-05
0.37305509450624
-8.2985936380672e-05
0.37310456832194
-0.00010120544936428
0.3731629194704
-0.00011931921468084
0.37323009533786
-0.00013732412969716
0.37330603514342
-0.00015520581884716
0.37339065952881
-0.00017292948218247
0.37348384250104
-0.000190404098432
0.37358541175778
-0.00020753960645922
0.37369515263671
-0.00022425356599327
0.37381287732144
-0.00024060235940239
0.37393844621714
-0.00025668354558385
0.37407186064241
-0.00027278088643816
0.37421319473133
-0.00028903867709642
0.37436269117691
-0.00030579664301667
0.37452054278458
-0.00032295102219906
0.37468711465831
-0.0003408533338493
0.3748625206297
-0.00035899126112485
0.37504721229709
-0.00037805653471419
0.37524111631612
-0.00039697395926243
0.37544497380715
-0.00041740893883978
0.37565842102991
-0.00043709032444439
0.37588287280196
-0.0004596586047377
0.37611725716853
-0.00047999951821802
0.37636424764943
-0.00050579262702785
0.37662098816331
-0.00052566820832317
-0.00055599222616474
0.3768926147729
0.35201531712066
-1.3632820981627e-05
0.3520285721388
-4.0917408528635e-05
0.35205068769598
-6.8335071116961e-05
0.35208161697228
-9.5592011142936e-05
0.3521213091722
-0.00012267820767719
0.35216971801713
-0.00014961436420836
0.35222679444834
-0.00017639571406772
0.35229248652497
-0.00020301627296368
0.35236673293039
-0.00022945228909943
0.35244945249715
-0.00025564911220313
0.35254051528165
-0.00028146694434787
0.35263974302643
-0.00030676741109635
0.35274691164158
-0.00033142223913087
0.35286182147677
-0.00035551225110593
0.35298431714236
-0.00037917926588347
0.35311438358565
-0.00040284738308464
0.35325207540698
-0.00042673055010762
0.35339761836777
-0.00045133965432569
0.35355118457766
-0.00047651728108947
0.3537131239111
-0.00050279271534059
0.35388352750266
-0.00052939489939995
0.3540628333349
-0.00055736241291337
0.35425093970564
-0.000585080374796
0.35444857607913
-0.0006150453565372
0.35465533951785
-0.00064385380635354
0.35487264080066
-0.00067695993032041
0.35509934906674
-0.00070670782617476
0.35533815831043
-0.00074460191173494
0.355586105144
-0.00077361508072159
-0.0008182698804331
0.35584838275845
0.33225842274837
-1.8011670041381e-05
0.33227155495496
-5.404967928394e-05
0.33229343897037
-9.0219150993575e-05
0.33232402260349
-0.00012617570819856
0.33236325664381
-0.00016191231071413
0.33241109811754
-0.0001974558994351
0.33246750040818
-0.00023279806464396
0.33253241194823
-0.0002679278715965
0.33260576879695
-0.00030280919474301
0.33268748458953
-0.00033736496030158
0.33277742094736
-0.00037140335595667
0.33287538880595
-0.00040473532207741
0.33298114940975
-0.00043718289358525
0.33309448684183
-0.00046884973250354
0.33321522585606
-0.00049991832777797
0.33334333295962
-0.00053095453312809
0.33347884128202
-0.00056223891745027
0.33362196012115
-0.00059445853741035
0.33377283980777
-0.00062739701028815
0.33393181701163
-0.00066176996101043
0.33409895828104
-0.000696536209418
0.33427469163494
-0.00073309580683549
0.33445888278497
-0.0007692715638116
0.33465225620165
-0.00080841881179484
0.33485436077058
-0.00084595841296837
0.33506661824285
-0.00088921744000893
0.33528782338492
-0.00092791300488545
0.33552073387287
-0.00097751243564217
0.33576225939025
-0.0010151406321511
-0.0010738133985075
0.33601780287317
0.31361041439995
-2.2368745399785e-05
0.31362348241509
-6.7117752923482e-05
0.31364523695035
-0.00011197374488794
0.31367562560689
-0.00015656442275485
0.31371460261201
-0.00020088937261117
0.3137621294073
-0.00024498275024805
0.31381816383924
-0.00028883255053324
0.31388265761304
-0.00033242169797904
0.31395554717096
-0.00037569880353406
0.31403674343893
-0.00041856127773103
0.31412610080287
-0.00046076076759733
0.31422341901728
-0.00050205358278849
0.3143284425345
-0.00054220645534983
0.31444093625127
-0.00058134349252349
0.31456070199229
-0.00061968411038879
0.31468768601471
-0.00065793859602856
0.31482189918397
-0.00069645212570054
0.31496353509807
-0.00073609448960526
0.31511272291402
-0.00077658486304067
0.3152697868855
-0.00081883396864003
0.31543476791277
-0.00086151727177243
0.31560808287268
-0.00090641080141738
0.31578956182355
-0.00095075054846633
0.31597992326648
-0.00099878028834298
0.3161786651057
-0.0010447002850994
0.31638722380074
-0.0010977761679682
0.31660431584487
-0.0011450050813997
0.31683277469825
-0.0012059713210721
0.31706936119483
-0.0012517271592524
-0.0013241675761611
0.3173197153405
0.29600904100798
-2.6707945449258e-05
0.29602205722734
-8.0134027170984e-05
0.29604370201879
-0.00013361859126529
0.29607392602608
-0.00018678848438551
0.29611269067492
-0.00023965407458188
0.29615996538872
-0.00029225751602498
0.29621571588578
-0.00034458309806936
0.29627990050674
-0.000396606368127
0.29635245930543
-0.00044825764978088
0.29643330342315
-0.00049940544167688
0.29652228237507
-0.00054973976401654
0.29661918644845
-0.00059895769935577
0.29672374442782
-0.00064676447619386
0.29683570279599
-0.00069330190093912
0.29695484129147
-0.0007388226444843
0.29708108690617
-0.00078418424828668
0.29721442988355
-0.00082979513916764
0.29735504954477
-0.00087671418607217
0.29750305610726
-0.0009245914595121
0.2976587620146
-0.0009745399093688
0.29782218463264
-0.0010249399221341
0.29799372813041
-0.0010779543311695
0.29817318912935
-0.0011302115785438
0.29836127559866
-0.001186866788663
0.29855743755451
-0.0012408622713091
0.2987631182187
-0.0013034568626035
0.29897695908418
-0.0013588459768254
0.29920185980141
-0.0014308720679948
0.29943443051699
-0.0014842979031561
-0.0015702790774563
0.29968054198832
0.27939554484121
-3.1018314793077e-05
0.27940847806019
-9.3067296806064e-05
0.27942996207
-0.00015510265167319
0.2794599531927
-0.0002167796570677
0.27949842323883
-0.00027812416949537
0.27954535310616
-0.00033918743103017
0.27960072012669
-0.00039995016479503
0.27966449324598
-0.00046037953238673
0.27973662031577
-0.00052038476292416
0.27981701699512
-0.00057980216310644
0.27990553229297
-0.0006382551022363
0.28000195120856
-0.00069537665406047
0.28010599095278
-0.00075080425784106
0.28021738327147
-0.00080469425589516
0.2803358896441
-0.00085732905178535
0.2804614209649
-0.00090971560277938
0.2805939507048
-0.0009623249113302
0.2807336462339
-0.0010164097466735
0.28088060274006
-0.0010715479959648
0.28103512131684
-0.0011290585159487
0.28119719991754
-0.0011870185516594
0.28136722718866
-0.0012479816308898
0.28154497150876
-0.0013079559264818
0.28173112267189
-0.0013730179796735
0.28192509070374
-0.0014348303304871
0.28212831152798
-0.0015066777144138
0.28233936387181
-0.0015698983478649
0.28256119382174
-0.0016527020450634
0.28279027625648
-0.0017133803638811
-0.0018127002543393
0.28303269740553
0.26371446875334
-3.5277663217087e-05
0.26372725356886
-0.00010585215974948
0.26374846987016
-0.00017631900031017
0.26377808223738
-0.00024639207107889
0.26381607582818
-0.00031611780597441
0.26386244646023
-0.00038555810777548
0.26391718705361
-0.00045469080150592
0.26398028157181
-0.00052347409282547
0.2640516905047
-0.00059179373652711
0.26413133914746
-0.00065945084543103
0.26421908149542
-0.0007259974881467
0.26431470280998
-0.00079099800540238
0.26441791465413
-0.0008540161371727
0.26452843957618
-0.00091521921203873
0.26464602674716
-0.00097491625531671
0.26477057571544
-0.0010342646026953
0.26490204885562
-0.0010937980817558
0.26504060477392
-0.001154965694511
0.26518632931078
-0.0012172725611612
0.2653395131
-0.0012822423330451
0.26550014130171
-0.0013476467802581
0.26566858442473
-0.0014164247805785
0.26584459154392
-0.0014839630715764
0.26602882591552
-0.0015572523772024
0.26622067050831
-0.0016266749486257
0.26642153728769
-0.0017075445193553
0.26662996097567
-0.0017783220609847
0.26684890766736
-0.0018716487618095
0.26707474048375
-0.0019392132042141
-0.002051689361546
0.26731372956515
0.24891347076462
-3.9455779416179e-05
0.24892601698416
-0.00011839842302445
0.24894681837554
-0.00019712043530705
0.24897585020245
-0.00027542394111259
0.24901311363845
-0.00035338128405517
0.24905862253045
-0.00043106704098712
0.24911238907755
-0.00050845738852876
0.24917441647553
-0.00058550152973716
0.2492446826428
-0.00066205994130403
0.24932312773082
-0.00073789596990793
0.2494096166826
-0.00081248647486188
0.24950394135597
-0.00088532271264914
0.24960581486459
-0.00095588967814837
0.24971495747326
-0.0010243618520774
0.24983111374214
-0.0010910725541006
0.24995417801221
-0.0011573289018374
0.25008410897714
-0.0012237290744404
0.25022106069113
-0.0012919174356157
0.25036511721478
-0.0013613291107883
0.25051656046666
-0.0014336856104993
0.25067537196673
-0.0015064583049704
0.25084190223633
-0.0015829550746589
0.25101589335395
-0.0016579542129584
0.25119797405069
-0.0017393330977621
0.25138751729135
-0.0018162182125564
0.25158589335505
-0.001905920606569
0.25179161637094
-0.0019840450999634
0.25200764248215
-0.0020876748960627
0.25223025298315
-0.0021618237272377
-0.0022872987455367
0.25246586234323
0.23494314920686
-4.3517465092816e-05
0.23495535092078
-0.00013060017780178
0.23497556494313
-0.00021733449840144
0.23500377915622
-0.0003036381945252
0.23504001281996
-0.00038961498719889
0.23508430026333
-0.00047535452301553
0.23513667603436
-0.00056083319706512
0.23519716618795
-0.00064599171998447
0.23526577040018
-0.00073066418888411
0.23534244858713
-0.00081457419130174
0.23542708257872
-0.00089712049948083
0.23551947738165
-0.00097771754768322
0.23561935553759
-0.0010557678647565
0.23572644271494
-0.0011314490592262
0.23584048767171
-0.0012051175392826
0.23596138654786
-0.001278227805654
0.23608910299647
-0.0013514455494431
0.23622379151066
-0.0014266059756275
0.23636554344003
-0.001503081064857
0.23651463464046
-0.0015827768352498
0.23667105430111
-0.0016628779890125
0.23683513246192
-0.0017470332586848
0.23700661942457
-0.0018294411980647
0.23718610291882
-0.0019188166145075
0.2373729662539
-0.0020030815695092
0.2375685218756
-0.0021014762503246
0.237771290199
-0.002186813444904
0.23798418814933
-0.0023005728678046
0.23820344956486
-0.0023810851631412
-0.0025194401492532
0.23843559094639
0.22175687757871
-4.7425289799421e-05
0.22176862138172
-0.00014234401874931
0.22178806412768
-0.00023677728219939
0.22181520750649
-0.00033078161083864
0.2218500900826
-0.00042449759997493
0.22189276824191
-0.00051803271836142
0.22194330107284
-0.00061136606299095
0.22200174018399
-0.00070443086540727
0.22206811048509
-0.00079703452306396
0.22214239577911
-0.00088885951761921
0.22222450017091
-0.00097922492228335
0.22231424802362
-0.0010674654305917
0.22241137914241
-0.0011528990124136
0.22251563236619
-0.001235702311114
0.22262676990347
-0.0013162551033859
0.22274469699753
-0.001396154925879
0.22286939155129
-0.0014761401281771
0.2230010139724
-0.0015582284211939
0.22313967295823
-0.0016417400740896
0.22328564187128
-0.0017287457713679
0.22343893055786
-0.0018161666977468
0.22359984972453
-0.0019079524473712
0.22376817536017
-0.0019977668549614
0.22394445045685
-0.0020950917324765
0.22412809170333
-0.0021867228366587
0.22432034089197
-0.0022937254597654
0.22451975434329
-0.00238622691648
0.22472918398628
-0.0025100025308888
0.22494485444227
-0.0025967556381955
-0.0027479277847821
0.22517334205697
0.20931064895168
-5.114232518843e-05
0.2093218213388
-0.00015351644144617
0.20934031010528
-0.00025526608421054
0.20936613062855
-0.00035660216937228
0.20939934104072
-0.00045770804668602
0.20944002040535
-0.00055871211701747
0.20948825344766
-0.00065959913840103
0.20954411881508
-0.00076029626532933
0.20960766895152
-0.00086058469093688
0.20967891452195
-0.00096010511881569
0.20975778633899
-0.0010580967689191
0.20984413346814
-0.0011538125886523
0.20993772018192
-0.001246485753879
0.21003830576289
-0.001336287919121
0.21014567480544
-0.0014236241717671
0.21025974869879
-0.0015102288444903
0.21038052890346
-0.0015969203569755
0.21050818725305
-0.0016858867944569
0.21064286019256
-0.001776413036242
0.21078482291371
-0.0018707085148449
0.21093411980715
-0.0019654636126189
0.21109104516901
-0.0020648778305052
0.21125541969053
-0.0021621413969855
0.21142774094471
-0.0022674130071418
0.21160748378886
-0.0023664657006272
0.21179581110461
-0.0024820527953964
0.21199134718402
-0.0025817630151642
0.21219685755394
-0.0027155129198492
0.21240860061137
-0.0028084987136081
-0.002972496877481
0.2126331696844
0.19756292865112
-5.4634477935111e-05
0.19757342396885
-0.00016401179264675
0.19759078849573
-0.00027263064455884
0.19761505027649
-0.00038086398340297
0.1976462864944
-0.00048894429724418
0.19768459861732
-0.00059702427216086
0.19773009693964
-0.00070509749211535
0.19778288736537
-0.00081308672196605
0.19784305084074
-0.00092074819625131
0.19791062652729
-0.0010276808347412
0.19798557508194
-0.0011330453518945
0.19806777433315
-0.0012360118675894
0.1981570190895
-0.0013357305368578
0.19825309527997
-0.001432364135655
0.19835581784817
-0.0015263467649386
0.19846513055515
-0.001619541575928
0.19858106698529
-0.0017128568105231
0.19870381548301
-0.0018086353151699
0.19883355026044
-0.0019061478356941
0.19897055301531
-0.0020077112914348
0.19911491660216
-0.0021098272203219
0.19926692336134
-0.002216884610361
0.19942645828532
-0.002321676340873
0.19959397595779
-0.0024349306994641
0.1997690353739
-0.0025415251359175
0.19995271660196
-0.0026657340426456
0.20014374651297
-0.0027727929447092
0.20034478684043
-0.0029165532655628
0.2005521803076
-0.0030158921979814
-0.0031928082566902
0.20077249166797
0.18647451440146
-5.7871539376732e-05
0.18648424214553
-0.00017373956856145
0.18650033361869
-0.00028872214961509
0.18652282912104
-0.00040335951752348
0.18655182371681
-0.00051793892423707
0.18658743990754
-0.00063264049376367
0.18662981238842
-0.0007474700031314
0.18667907344511
-0.00086234780836137
0.18673533232521
-0.00097700710519767
0.18679865687502
-0.0010910054129105
0.18686903917107
-0.0012034276753366
0.18694638831466
-0.0013133610380659
0.18703053415954
-0.0014198764076292
0.18712129395566
-0.0015231239571718
0.18721851943222
-0.001623572265899
0.18732218164611
-0.0017232038137631
0.18743235342865
-0.0018230286160385
0.18754924381888
-0.0019255257279859
0.18767307365894
-0.0020299776974093
0.18780413566132
-0.0021387733151658
0.18794258419057
-0.0022482757700562
0.18808869515982
-0.0023629955998903
0.18824243713554
-0.0024754183360936
0.1884042265445
-0.0025967201278081
0.18857373318544
-0.0027110317955393
0.18875195405332
-0.0028439549291379
0.1889377562401
-0.0029585951494352
0.18913368168141
-0.0031124787244783
0.18933621887154
-0.003218429404667
-0.0034084390255729
0.18955184962227
0.17600840620398
-6.0829012046192e-05
0.17601729304172
-0.00018262643687715
0.1760319899076
-0.00030341904616676
0.17605254848009
-0.00042391812061472
0.17607907999156
-0.00054447046580707
0.17611172589463
-0.00066528642661964
0.17615064308643
-0.00078638722402875
0.17619598800668
-0.00090769275731867
0.17624789643129
-0.0010289155576911
0.17630646381772
-0.0011495728267776
0.17637171389982
-0.0012686777839767
0.17644358787221
-0.0013852350365569
0.17652195327772
-0.0014982418383151
0.17660666159317
-0.0016078322973816
0.17669760581698
-0.0017145165135511
0.17679478756104
-0.0018203855812716
0.17689832404097
-0.0019265651185067
0.17700844790532
-0.00203564961452
0.17712543355595
-0.0021469633693255
0.17724958859944
-0.0022629283796248
0.17738114024191
-0.0023798274326365
0.17752036372089
-0.0025022190987208
0.17766732898617
-0.0026223836204203
0.17782242055106
-0.0027518117115666
0.17798544593261
-0.0028740571952293
0.1781573205765
-0.0030158295910267
0.17833709403401
-0.0031383686242659
0.17852717087935
-0.0033025555867537
0.1787242611413
-0.0034155196825616
-0.0036188707774845
0.1789346928757
0.16612968172158
-6.3488781369808e-05
0.16613767324745
-0.00019061799241153
0.16615088495789
-0.00031663078641245
0.16616937853434
-0.00044241172678229
0.16619327911513
-0.00056837107581337
0.1662227442879
-0.0006947516282666
0.1662579500743
-0.00082159303861268
0.16629907388054
-0.00094881659129871
0.16634627516632
-0.0010761168703863
0.16639967444268
-0.001202972129581
0.16645932552266
-0.0013283288895279
0.16652520124811
-0.0014511107871498
0.16659720773585
-0.0015702483503394
0.16667523171892
-0.0016858563043512
0.16675920966413
-0.0017984944818341
0.16684917515759
-0.0019103510974384
0.16694529242738
-0.0020226824101669
0.16704781912399
-0.0021381763326546
0.16715708748591
-0.00225623175191
0.16727342295616
-0.0023792638701707
0.16739713428172
-0.0025035387776494
0.16752850170363
-0.0026335865397235
0.16766771199117
-0.0027615939262314
0.16781512404796
-0.0028992237863334
0.16797070873061
-0.0030296418951033
0.16813530086832
-0.0031804217457246
0.1683081796364
-0.0033112474086502
0.16849159121062
-0.0034859671768738
0.16868256136615
-0.0036064898530967
-0.0038234806027501
0.16888717117485
0.15680537925997
-6.5839378427198e-05
0.15681244089066
-0.00019767965216738
0.15682410965281
-0.00032829957771793
0.15684045547239
-0.00045875757533818
0.15686161463282
-0.00058953026461787
0.1568877575073
-0.00072089453066059
0.15691907551526
-0.00085291107366221
0.15695576311461
-0.00098550421715258
0.15699799963914
-0.0011183534204787
0.15704592715039
-0.001250899665814
0.15709962666019
-0.0013820284234017
0.15715910053484
-0.0015105846853814
0.15722429232442
-0.0016354401626792
0.15729512382253
-0.0017566878248425
0.15737157463634
-0.0018749453172696
0.15745371007832
-0.0019924865607022
0.15754174095595
-0.0021107133083123
0.15763594998264
-0.0022323853794929
0.15773672786115
-0.0023570096497564
0.15784442013646
-0.002486956164397
0.1579594214512
-0.002618540110441
0.15808202318875
-0.0027561882948579
0.15821254016429
-0.0028921109184875
0.15835131359151
-0.003037997229854
0.15849850020936
-0.0031768285284283
0.15865485289883
-0.0033367744503375
0.15881992678101
-0.0034763213052712
0.15899578331607
-0.0036618237259967
0.15917987622438
-0.0037905827747343
-0.0040215409163469
0.15937793652307
0.14800438754971
-6.7876024968333e-05
0.14801050457496
-0.0002037967063629
0.14802060515206
-0.00033840018372748
0.14803476561591
-0.0004729180676739
0.14805313048217
-0.00060789515850753
0.14807587921097
-0.00074364328630995
0.14810321435978
-0.00088024624820944
0.14813534299797
-0.0010176328801977
0.14817245978586
-0.0011554702320437
0.1482147242081
-0.0012931641109171
0.14826224051914
-0.0014295447562725
0.14831503776269
-0.0015633819501514
0.14837309393584
-0.001693496356206
0.14843636415098
-0.001819958059948
0.14850486832207
-0.0019434495076236
0.14857870221635
-0.0020663204739008
0.14865811883293
-0.002190129943112
0.14874342562869
-0.0023176921930919
0.14883506708113
-0.0024486511192386
0.14893341239044
-0.0025853014902639
0.14903893854243
-0.0027240662780821
0.149151957734
-0.0028692075014964
0.14927291325487
-0.0030130664534564
0.14940214369017
-0.0031672276786814
0.14954000609842
-0.0033146909492934
0.14968717882285
-0.0034839471869077
0.14984353094976
-0.0036326734436166
0.15001090058233
-0.0038291933696672
0.15018727941177
-0.0039669616147869
-0.0042122094319572
0.15037794791516
0.13969734132422
-6.9600116680274e-05
0.1397025179518
-0.00020897336401953
0.13971105623717
-0.00034693849903172
0.13972303684485
-0.0004848987044305
0.13973860933836
-0.00062346767972529
0.13975795861239
-0.00076299258673374
0.13978129420936
-0.00090358186996004
0.13980883128742
-0.0010451699816669
0.1398407746585
-0.001187413624978
0.13987729638299
-0.0013296858560969
0.13991851898395
-0.0014707673766685
0.13996449488315
-0.0016093578680034
0.14001523235313
-0.0017442338439336
0.14007071795561
-0.0018754436796872
0.14013100610842
-0.0020037376770188
0.14019622148869
-0.0021315358704033
0.14026665026047
-0.0022605587304652
0.14034262521267
-0.0023936671604448
0.14042463183384
-0.0025306577547665
0.14051307179398
-0.0026737414641805
0.14060848682859
-0.0028194813254963
0.14071123279264
-0.0029719534775936
0.14082185549042
-0.0031236891621967
0.14094072787481
-0.0032861000732329
0.14106838570261
-0.0034423487862012
0.1412054773133
-0.0036210388060475
0.14135221399339
-0.0037794101313988
0.14151017960169
-0.0039871589853573
0.14167801426892
-0.0041347962892616
-0.0043944729673009
0.14186027779539
0.13185652228625
-7.1017703298917e-05
0.13186077879461
-0.00021322990663784
0.13186778893291
-0.00035394867164241
0.1318776351556
-0.00049474496006162
0.13189046807961
-0.00063630063459855
0.13190647387706
-0.00077899841292817
0.13192586498779
-0.0009229730071422
0.13194886053411
-0.0010681655524045
0.13197567077963
-0.0012142238928825
0.13200647559241
-0.0013604906896719
0.1320414103798
-0.0015057021833426
0.13208054689034
-0.0016484943968154
0.13212391837989
-0.0017876053507508
0.13217154035497
-0.001923065671459
0.13222349414117
-0.002055691479222
0.13227993135943
-0.0021879731042565
0.13234115815556
-0.0023217855415171
0.13240753524373
-0.0024600442630354
0.13247956761166
-0.0026026901362699
0.13255770640565
-0.0027518802709906
0.13264251968445
-0.0029042946159896
0.13273445714106
-0.0030638909448996
0.13283409315688
-0.0032233251873979
0.13294193425555
-0.0033939411801752
0.13305856598095
-0.0035589805185827
0.13318474838684
-0.0037472212179588
0.13332094420224
-0.0039156059519083
0.13346861038265
-0.0041348251705411
0.13362722249751
-0.0042934084090047
-0.0045671746684297
0.13379992419202
0.12445576682668
-7.2138227653482e-05
0.12445913461488
-0.00021659773909586
0.12446467317254
-0.00035948727450752
0.12447246354134
-0.00050253537246563
0.1244826536714
-0.00064649080546768
0.1244954274761
-0.00079177225548062
0.1245109957376
-0.00093854130342198
0.12452957575836
-0.0010867456052388
0.12455137750803
-0.0012360256720864
0.12457658380894
-0.0013856970181213
0.12460533935663
-0.0015344577567992
0.12463773228387
-0.0016808873485836
0.12467381750856
-0.0018236905988525
0.12471363583017
-0.0019628840157674
0.12475728738355
-0.0020993430545179
0.12480494415274
-0.0022356298948214
0.12485691774611
-0.0023737591554735
0.12491359464496
-0.002516721181783
0.12497547717608
-0.0026645726862439
0.12504308367799
-0.0028194867906971
0.12511695890336
-0.002978169857718
0.12519771755211
-0.0031446496085818
0.12528583425718
-0.0033114419056836
0.12538215902789
-0.0034902659625301
0.12548700853947
-0.0036638300400787
0.12560169418123
-0.003861906868202
0.12572624053157
-0.0040401523094543
0.12586281289849
-0.0042713975440758
0.12601124962611
-0.0044418451433434
-0.0047299940042959
0.12617406895329
0.11747038234764
-7.2976847131388e-05
0.1174729041511
-0.0002191196050047
0.1174770471982
-0.00036363038621821
0.11748288437177
-0.00050837260910935
0.11749055891719
-0.00065416541074687
0.11750025247759
-0.00080146587212517
0.1175121723617
-0.00095046124011567
0.1175265293254
-0.0011011026182824
0.11754352541756
-0.0012530218107157
0.11756333833098
-0.0014055099757049
0.11758611718967
-0.0015572366577363
0.11761196234901
-0.0017067325487145
0.11764095085324
-0.0018526791426473
0.11767314570688
-0.0019950789080324
0.11770866423637
-0.0021348616217121
0.11774768626696
-0.002274651962284
0.11779052152185
-0.002416594446243
0.1178375631003
-0.0025637627949986
0.1178893043483
-0.0027163139676389
0.11794631641326
-0.0028764988874016
0.11800910792866
-0.0030409614029258
0.1180784790762
-0.0032140207837412
0.11815470994835
-0.0033876728031301
0.1182391944672
-0.0035747505043308
0.11833156674601
-0.0037562023395445
0.11843458886284
-0.0039649290034543
0.11854612455224
-0.0041516880153837
0.11867173531922
-0.0043970083263072
0.11880635749164
-0.004576467330669
-0.0048856579479262
0.11896202141785
0.11087706890481
-7.3560925341974e-05
0.11087881044758
-0.0002208612350803
0.11088166139642
-0.00036648142548044
0.11088567512517
-0.00051238642675084
0.11089098984422
-0.00065948021517854
0.11089778395039
-0.00080826005969439
0.11090625851125
-0.00095893587844142
0.11091661735736
-0.0011114615384555
0.11092905334901
-0.0012654578734552
0.11094373762031
-0.0014201943157759
0.11096082387001
-0.0015743229742224
0.11098042097979
-0.0017263297237961
0.11100262359345
-0.0018748818202031
0.11102750303178
-0.0020199584092013
0.11105519096649
-0.0021625496180051
0.11108585592973
-0.0023053169860199
0.11111981405786
-0.002450552633382
0.11115743341095
-0.0026013822055977
0.11119923413925
-0.0027581147513325
0.11124576491624
-0.0029230297174804
0.11129759666335
-0.0030927932001235
0.11135553448267
-0.003271958650094
0.11141990167233
-0.0034520400363324
0.11149225204
-0.003647100912381
0.11157186582498
-0.0038358161615558
0.11166281442401
-0.0040558776364357
0.11176058992407
-0.0042494635463143
0.1118761349971
-0.0045125534279932
0.11199280882349
-0.0046931411843311
-0.0050363723381514
0.11214352318313
0.10465382884932
-7.3923903079476e-05
0.1046548929716
-0.00022192547090253
0.10465657534055
-0.00036816391006029
0.10465891962886
-0.00051473082874973
0.10466206334938
-0.00066262404581833
0.10466617076655
-0.00081236758302501
0.10467143100646
-0.00096419622079153
0.10467803475086
-0.0011180653820753
0.10468617025208
-0.0012735934712808
0.10469600346885
-0.0014300276270082
0.10470770329596
-0.0015860228940713
0.10472140456559
-0.0017400310846279
0.10473722486369
-0.0018907022081938
0.1047552249952
-0.0020379586292145
0.10477553242378
-0.0021828571337589
0.10479827595011
-0.0023280605978761
0.1048237713065
-0.0024760480735433
0.1048523178714
-0.0026299288519105
0.10488452135062
-0.002790318309239
0.10492080268649
-0.0029593111284212
0.10496202593163
-0.0031340165163
0.10500854085836
-0.0033184736430967
0.10506149724478
-0.0035049964844221
0.10512111579971
-0.0037067195243106
0.10518870456809
-0.0039034049826832
0.10526511124482
-0.00413228436135
0.10535082256525
-0.0043351749107969
0.10545202392021
-0.004613754823355
0.10555954521893
-0.004800662521176
-0.0051763674261353
0.10569954026383
0.098779830879663
-7.4036631491437e-05
0.098780327202134
-0.00022242192434999
0.098780922492562
-0.00036875933245896
0.098781755297021
-0.0005155637631028
0.098782968264238
-0.00066383713968683
0.098784680923521
-0.00081408036566545
0.098787093204855
-0.00096660862247225
0.09879036533915
-0.0011213376343873
0.0987946339722
-0.0012778622204387
0.098800018626856
-0.0014354123964247
0.098806663339522
-0.0015926677202364
0.098814721182143
-0.0017480890397796
0.09882438499537
-0.0019003661327537
0.098835782324131
-0.0020493560682257
0.098849063704626
-0.0021961386229699
0.098864306909879
-0.002343303910282
0.09888179088676
-0.0024935321552742
0.098901710172349
-0.0026498482396774
0.09892471589754
-0.0028133241327061
0.098951063119884
-0.0029856584443705
0.098982017551603
-0.003164971035588
0.09901738334854
-0.0033538395212621
0.099059534168015
-0.0035471473783735
0.099106656057503
-0.003753841482178
0.099164048193497
-0.0039607971810519
0.09922551398833
-0.004193750212735
0.099302976517587
-0.0044126374908181
0.099381678017274
-0.0046924563695638
0.09948458483764
-0.0049035693866892
0.099641849640007
-0.0053336322784152
0.39463710431945
0.0046149694314282
0.39018618099148
0.0044509233016315
0.38590383082522
0.0042823501406388
0.38179439154156
0.0041094392581936
0.37786199409139
0.0039323974249053
0.3741105753797
0.0037514186862207
0.37054388673223
0.0035666886219975
0.36716550073003
0.0033783859763312
0.36397881704363
0.0031866836603881
0.3609870669031
0.0029917501139778
0.35819331671017
0.0027937501661346
0.35560046975542
0.0025928469272705
0.35321126758943
0.0023892021381701
0.35102829001357
0.0021829775472198
0.34905395542102
0.001974334563466
0.34729052008568
0.0017634353053212
0.34574007704574
0.0015504430093811
0.34440455368413
0.0013355233299788
0.34328570732518
0.0011188463266958
0.34238511951003
0.00090058778168834
0.34170418496631
0.00068093450954216
0.34124409602374
0.00046008890705858
0.34100579974375
0.00023829624368637
0.34098962074253
1.6178963475869e-05
0.34119705619767
-0.00020743549373946
0.34162794709533
-0.00043089093775147
0.34228232967171
-0.00065438261732968
0.34316001578365
-0.00087768615433976
0.34426054767932
-0.0011005319388154
0.34558319989699
-0.0013226522621366
0.34712698740309
-0.0015437875510884