/*--------------------------------*- C++ -*----------------------------------*\
| =========                 |                                                 |
| \\      /  F ield         | OpenFOAM: The Open Source CFD Toolbox           |
|  \\    /   O peration     | Version:  2112                                  |
|   \\  /    A nd           | Website:  www.openfoam.com                      |
|    \\/     M anipulation  |                                                 |
\*---------------------------------------------------------------------------*/
FoamFile
{
    version     2.0;
    format      ascii;
    arch        "LSB;label=32;scalar=64";
    class       volVectorField;
    location    "13.1";
    object      U;
}
// * * * * * * * * * * * * * * * * * * * * * * * * * * * * * * * * * * * * * //

dimensions      [0 1 -1 0 0 0 0];

internalField   nonuniform List<vector> 
22000
(
(1.0000010006613 -2.5153530235732e-05 0)
(1.0000260710797 -7.5608576631301e-05 0)
(1.0000743379416 -0.00012611111296741 0)
(1.0001469185451 -0.00017645305924288 0)
(1.0002442510043 -0.00022663496165965 0)
(1.0003663018679 -0.00027666241583318 0)
(1.0005128181765 -0.00032643600942167 0)
(1.0006834996187 -0.00037580872413758 0)
(1.0008780521227 -0.00042463890390842 0)
(1.0010961988306 -0.00047284108483785 0)
(1.0013376452874 -0.00052034724515785 0)
(1.0016020883306 -0.00056714920254687 0)
(1.0018891807572 -0.00061320140589309 0)
(1.0021985873489 -0.00065852901202245 0)
(1.0025299139027 -0.00070302428647555 0)
(1.0028828076322 -0.00074673243325587 0)
(1.003256791999 -0.00078942392335424 0)
(1.0036514910552 -0.00083127287468134 0)
(1.0040663013569 -0.00087186000175262 0)
(1.0045008826544 -0.0009117009951088 0)
(1.0049544608407 -0.00094991755795662 0)
(1.005426846173 -0.0009877493304704 0)
(1.0059169529506 -0.0010231955696615 0)
(1.006424924187 -0.0010591380502134 0)
(1.0069490485712 -0.0010910058606211 0)
(1.0074901803335 -0.0011255203684636 0)
(1.0080453930244 -0.0011522421016302 0)
(1.0086170507375 -0.0011867935513994 0)
(1.0091999201389 -0.001205222073935 0)
(1.0097994948365 -0.0012436371775582 0)
(1.0000004572891 -7.3979557620262e-05 0)
(1.000025469744 -0.00022257888825313 0)
(1.000073942468 -0.00037148019838214 0)
(1.0001469227341 -0.00052003390984526 0)
(1.0002449037245 -0.00066821126778596 0)
(1.0003679281847 -0.00081601114175626 0)
(1.0005157929343 -0.00096313647521713 0)
(1.0006882348516 -0.0011091575901184 0)
(1.0008849782363 -0.0012536605899513 0)
(1.0011057767396 -0.001396391277571 0)
(1.0013503461515 -0.0015371419282753 0)
(1.0016184239581 -0.001675878805662 0)
(1.0019096553045 -0.0018124627435688 0)
(1.0022237655543 -0.0019469654832657 0)
(1.0025603199523 -0.0020790750482417 0)
(1.0029190809829 -0.0022089236942561 0)
(1.0032994624061 -0.0023358420647535 0)
(1.0037013168532 -0.0024603275899845 0)
(1.0041237637138 -0.0025811537494454 0)
(1.0045669271656 -0.0026998000950224 0)
(1.0050293816819 -0.0028137152769598 0)
(1.0055119266043 -0.0029264682214622 0)
(1.0060120224528 -0.0030322836167296 0)
(1.0065319725616 -0.0031394514489744 0)
(1.0070668823485 -0.003234829382899 0)
(1.0076223246131 -0.0033377000150077 0)
(1.0081884656224 -0.0034181488768424 0)
(1.0087778935379 -0.0035208580373154 0)
(1.0093705625253 -0.0035774441852911 0)
(1.009993981833 -0.0036908299052775 0)
(1.0000004760799 -0.00012068660377365 0)
(1.0000263697062 -0.00036336954527448 0)
(1.0000764355728 -0.00060670400574687 0)
(1.0001516502952 -0.00084965225505533 0)
(1.000252477414 -0.0010921478545701 0)
(1.000378974075 -0.0013341622363309 0)
(1.0005309657717 -0.0015752127307891 0)
(1.0007082361565 -0.0018146254173626 0)
(1.0009105462929 -0.002051749673855 0)
(1.0011377103183 -0.0022861798547844 0)
(1.0013894708374 -0.0025175612949004 0)
(1.0016656354856 -0.0027458211898672 0)
(1.0019658419292 -0.0029707109970479 0)
(1.0022899152285 -0.0031923583344154 0)
(1.0026373610777 -0.0034102557498428 0)
(1.0030081342294 -0.0036246611871839 0)
(1.0034014799995 -0.0038344601114094 0)
(1.0038176348651 -0.00404050641107 0)
(1.0042552698336 -0.0042406948602637 0)
(1.0047152875989 -0.0044375149704429 0)
(1.0051951698894 -0.0046265893446826 0)
(1.0056973931702 -0.0048139749775413 0)
(1.0062169196026 -0.004989837083123 0)
(1.0067597896977 -0.0051683004386904 0)
(1.0073155171597 -0.0053270236965052 0)
(1.007898020914 -0.0054988307343113 0)
(1.008485036775 -0.0056328605073376 0)
(1.0091076778934 -0.0058050735726006 0)
(1.0097185355298 -0.0058992602643294 0)
(1.0103861612135 -0.0060902258205747 0)
(1.0000004801209 -0.00016621052918625 0)
(1.0000273053134 -0.00050063915651373 0)
(1.0000791564323 -0.00083595450454086 0)
(1.0001570247275 -0.0011708657559515 0)
(1.0002613857235 -0.0015053137352122 0)
(1.0003923113927 -0.001839246226875 0)
(1.0005496423814 -0.0021720269098462 0)
(1.0007332111465 -0.0025027992217224 0)
(1.0009428262335 -0.0028307309932344 0)
(1.0011783905674 -0.0031552963986822 0)
(1.001439689301 -0.0034759885682364 0)
(1.0017266343551 -0.0037926822999212 0)
(1.0020388559426 -0.0041049980456475 0)
(1.002376325014 -0.004413138028326 0)
(1.002738465598 -0.0047164103050177 0)
(1.0031255125652 -0.0050152636887645 0)
(1.003536475678 -0.0053081241230078 0)
(1.0039721480876 -0.0055962641876416 0)
(1.0044305658386 -0.0058765754130141 0)
(1.0049137550877 -0.0061526482897202 0)
(1.0054176402363 -0.0064180112856161 0)
(1.0059471071093 -0.0066814931120108 0)
(1.0064935494177 -0.0069286950191041 0)
(1.0070683641599 -0.0071803133419215 0)
(1.0076530780083 -0.0074037128359645 0)
(1.0082735534293 -0.0076469272717125 0)
(1.0088897957002 -0.0078356328035401 0)
(1.0095593883874 -0.0080807934998432 0)
(1.010195963116 -0.0082126718701454 0)
(1.0109265757248 -0.0084863399268339 0)
(1.0000004819878 -0.00021068327498076 0)
(1.0000283220957 -0.0006348778826085 0)
(1.0000821263395 -0.0010601153545407 0)
(1.0001629166235 -0.0014849734595228 0)
(1.0002711990582 -0.0019094442281413 0)
(1.0004070737665 -0.0023334615964386 0)
(1.0005704038004 -0.0027562788433513 0)
(1.0007610856161 -0.0031769321761473 0)
(1.0009789915072 -0.0035944732666556 0)
(1.0012241442857 -0.0040082928049702 0)
(1.0014963909822 -0.0044177241836716 0)
(1.001795786275 -0.0048225747234937 0)
(1.0021219586707 -0.0052223078972688 0)
(1.0024750765376 -0.0056172260170301 0)
(1.0028544672936 -0.0060064639690622 0)
(1.0032607383029 -0.0063907434601532 0)
(1.0036926052444 -0.0067680069239713 0)
(1.0041515925736 -0.0071400288713864 0)
(1.0046349283013 -0.0075025340375753 0)
(1.0051461028769 -0.0078603447378048 0)
(1.0056790455842 -0.0082045421780312 0)
(1.0062417653185 -0.008547115118926 0)
(1.0068210742795 -0.0088684225426055 0)
(1.0074352823001 -0.0091967230854394 0)
(1.0080556630835 -0.0094876106360276 0)
(1.0087234421395 -0.0098065739298961 0)
(1.0093758873659 -0.010052452062995 0)
(1.0101045249053 -0.010376228153003 0)
(1.0107731108097 -0.01054703112392 0)
(1.0115834728232 -0.010911453692984 0)
(1.0000004803993 -0.00025412472458723 0)
(1.0000293422931 -0.00076617930919151 0)
(1.0000851123264 -0.0012793746301406 0)
(1.000168844183 -0.0017922943911494 0)
(1.0002810835068 -0.0023050252836588 0)
(1.0004219718675 -0.0028174929751837 0)
(1.0005914076431 -0.003328886516737 0)
(1.0007893726796 -0.0038382197232416 0)
(1.0010158239835 -0.0043445021660317 0)
(1.0012709383001 -0.0048470832198593 0)
(1.0015546468768 -0.0053451282955979 0)
(1.0018671885401 -0.0058383617595309 0)
(1.0022082006918 -0.006326061425287 0)
(1.0025781044801 -0.0068086616672627 0)
(1.0029761225596 -0.0072851372439363 0)
(1.003403330346 -0.007756580479548 0)
(1.0038581008833 -0.0082204209235484 0)
(1.004342865493 -0.0086790374517002 0)
(1.0048538878791 -0.0091267951727374 0)
(1.0053964572944 -0.0095699121694841 0)
(1.0059621017445 -0.0099966027367423 0)
(1.0065626388953 -0.010422488087583 0)
(1.0071793521387 -0.01082187061764 0)
(1.0078389410264 -0.011231763615578 0)
(1.0085003042249 -0.011594215223184 0)
(1.0092232391836 -0.01199486325838 0)
(1.0099176149524 -0.012301664542033 0)
(1.0107158459389 -0.012711623353104 0)
(1.011421739362 -0.012923634231293 0)
(1.0123268937158 -0.01338922257204 0)
(1.0000004732113 -0.00029643638844563 0)
(1.0000302681832 -0.00089426282231892 0)
(1.000087833218 -0.001493273094255 0)
(1.0001742535772 -0.002092207977436 0)
(1.0002901222427 -0.0026912961652991 0)
(1.0004356350993 -0.0032904613213642 0)
(1.0006107397003 -0.0038888791621122 0)
(1.0008155263042 -0.004485634892218 0)
(1.0010500597773 -0.0050797784877435 0)
(1.0013147066168 -0.0056706666381934 0)
(1.0016095072559 -0.0062572904657096 0)
(1.0019349282912 -0.0068392781279874 0)
(1.0022906310336 -0.0074156932507142 0)
(1.0026773475059 -0.0079871413690163 0)
(1.0030941942418 -0.0085524532672113 0)
(1.0035428120896 -0.0091132038574235 0)
(1.0040211937806 -0.0096662783313684 0)
(1.0045328514925 -0.010214780183646 0)
(1.0050729480618 -0.010751502092352 0)
(1.0056488949926 -0.011284250889722 0)
(1.0062494514465 -0.011797905331414 0)
(1.0068908943728 -0.012312258437456 0)
(1.0075481119862 -0.01279463851516 0)
(1.0082575699677 -0.013292159172016 0)
(1.0089638558409 -0.01373132154152 0)
(1.0097482936749 -0.01422094145417 0)
(1.0104891207317 -0.014593547169042 0)
(1.0113659622461 -0.015098887891518 0)
(1.0121136213368 -0.015355438159884 0)
(1.0131269522764 -0.015934617614891 0)
(1.0000004589358 -0.0003374139570191 0)
(1.0000310059565 -0.0010185218888478 0)
(1.0000900178964 -0.0017008030112725 0)
(1.0001786097028 -0.0023833161708849 0)
(1.0002974290796 -0.0030664835401883 0)
(1.0004467389126 -0.0037502358483218 0)
(1.000626549993 -0.0044337918886054 0)
(1.000837084136 -0.005116409997483 0)
(1.0010785379404 -0.0057972704077406 0)
(1.0013515039367 -0.0064757918824252 0)
(1.0016561585996 -0.0071507881781413 0)
(1.0019932409631 -0.0078217817219677 0)
(1.0023624551558 -0.0084875955742257 0)
(1.002764903346 -0.0091490526227202 0)
(1.0031996014349 -0.0098048598259025 0)
(1.0036688526991 -0.010457198994789 0)
(1.004170244023 -0.011102380225402 0)
(1.0047085372864 -0.011744367817604 0)
(1.0052776816418 -0.012374157861368 0)
(1.0058875167029 -0.013001363616138 0)
(1.0065237148494 -0.013607027341408 0)
(1.0072076115921 -0.014215704286788 0)
(1.0079069403301 -0.014786759295579 0)
(1.008669179838 -0.015378862329649 0)
(1.0094229016699 -0.015900808739375 0)
(1.0102735886854 -0.016487854530324 0)
(1.0110641484617 -0.016932212181065 0)
(1.0120269601906 -0.017543589327843 0)
(1.0128200056427 -0.017849139506329 0)
(1.0139530466006 -0.018556148132844 0)
(1.0000004361988 -0.00037677812660023 0)
(1.0000314686225 -0.0011381184000711 0)
(1.0000914143671 -0.0019005700385028 0)
(1.0001814148134 -0.0026636768659294 0)
(1.0003021786104 -0.0034281079771305 0)
(1.0004540476458 -0.0041938125234499 0)
(1.0006371097489 -0.0049601133556496 0)
(1.0008517406876 -0.0057265497145736 0)
(1.0010982924313 -0.006492527728432 0)
(1.0013776187629 -0.0072575882892563 0)
(1.0016900596797 -0.0080203688960581 0)
(1.002036670439 -0.0087802813661569 0)
(1.0024172198933 -0.0095358858493473 0)
(1.0028332384496 -0.010288275269232 0)
(1.0032836535202 -0.011036058196628 0)
(1.0037715239749 -0.011782157272543 0)
(1.0042940187212 -0.012522281360556 0)
(1.0048573074445 -0.013261404367871 0)
(1.0054540414146 -0.013988500995268 0)
(1.0060967665263 -0.014715226712942 0)
(1.0067678122296 -0.015418274958877 0)
(1.0074941032893 -0.016127584639848 0)
(1.0082355920264 -0.016793536401205 0)
(1.0090518447459 -0.017487870492101 0)
(1.0098540102478 -0.018099445407292 0)
(1.0107739509837 -0.018793331316298 0)
(1.011616207065 -0.019316386071664 0)
(1.0126704922414 -0.020045696628702 0)
(1.0135116575192 -0.020405912351909 0)
(1.0147738062899 -0.021256511025677 0)
(1.0000004038374 -0.00041420653980385 0)
(1.0000315774122 -0.0012520785163588 0)
(1.0000917944327 -0.0020909514546407 0)
(1.000182220787 -0.002931023437565 0)
(1.0003036320095 -0.0037732645313479 0)
(1.0004564582443 -0.0046176549564408 0)
(1.0006408758123 -0.0054636852798699 0)
(1.0008574342124 -0.0063112864659901 0)
(1.0011066630123 -0.0071601900184459 0)
(1.001389709622 -0.0080101229753285 0)
(1.0017071046228 -0.0088595529594083 0)
(1.0020602600103 -0.0097077813104806 0)
(1.0024490335326 -0.010553089300035 0)
(1.0028754373552 -0.011396897477959 0)
(1.0033383293767 -0.012237749223184 0)
(1.0038416082938 -0.013079446743137 0)
(1.0043820283529 -0.013917082563743 0)
(1.0049673065362 -0.014756794267825 0)
(1.0055887464403 -0.015585325053502 0)
(1.0062618376005 -0.016416613437011 0)
(1.00696538717 -0.01722250871342 0)
(1.0077323442341 -0.018038956102002 0)
(1.0085144215481 -0.018806352428037 0)
(1.0093841311187 -0.019611012879264 0)
(1.0102341496813 -0.020319660527697 0)
(1.0112244406074 -0.021130522597824 0)
(1.012118942072 -0.021740127336472 0)
(1.0132681208856 -0.022600259943268 0)
(1.014159189659 -0.023022073344845 0)
(1.01555741997 -0.024033211544688 0)
(1.0000003615463 -0.00044936583785718 0)
(1.0000312700078 -0.0013593907105674 0)
(1.0000909698515 -0.0022702560958772 0)
(1.0001806523338 -0.0031829810504424 0)
(1.0003011672438 -0.0040988914499281 0)
(1.0004530408033 -0.0050180137410953 0)
(1.0006365466604 -0.0059400722397467 0)
(1.0008524226292 -0.0068655006145593 0)
(1.0011013949168 -0.007794457076756 0)
(1.0013849307214 -0.0087269200477299 0)
(1.0017037769421 -0.00966119984256 0)
(1.0020597356797 -0.010596490878796 0)
(1.0024527808449 -0.01153078939558 0)
(1.0028854494513 -0.012465901582974 0)
(1.0033565593479 -0.013400352629865 0)
(1.0038709136015 -0.014338956754479 0)
(1.0044248799148 -0.015276201087737 0)
(1.0050278245211 -0.016219525389714 0)
(1.0056697072813 -0.017153278919394 0)
(1.0063691270881 -0.018093891157785 0)
(1.0071012998326 -0.019007949168668 0)
(1.007905491726 -0.019937955174886 0)
(1.0087249397936 -0.02081345208765 0)
(1.0096456642762 -0.021736685726364 0)
(1.0105412734213 -0.022550264478061 0)
(1.0116009423681 -0.023488664800979 0)
(1.0125467071832 -0.024193449730526 0)
(1.0137918756479 -0.025197980321392 0)
(1.0147335636686 -0.025689629650002 0)
(1.0162720664524 -0.026878990527879 0)
(1.0000003086912 -0.00048193401389197 0)
(1.0000305013773 -0.001459073313776 0)
(1.0000888122336 -0.0024368421279563 0)
(1.0001764486457 -0.0034172391160083 0)
(1.0002943377647 -0.0044019986995833 0)
(1.0004431074819 -0.0053912095361883 0)
(1.0006231384347 -0.006384896543087 0)
(1.0008353670424 -0.0073841039615539 0)
(1.0010807343196 -0.0083895188919583 0)
(1.0013610436784 -0.0094014352155626 0)
(1.001677284211 -0.010418027138776 0)
(1.0020316660224 -0.011438385472896 0)
(1.002424314831 -0.012460229905036 0)
(1.002858310233 -0.013485802211995 0)
(1.0033324861577 -0.014513680458816 0)
(1.003852564024 -0.015549797924207 0)
(1.0044146176384 -0.016588101040481 0)
(1.005029661591 -0.017637410776298 0)
(1.005686455986 -0.018679638089139 0)
(1.0064066754195 -0.019733779633132 0)
(1.0071621557009 -0.020760969945016 0)
(1.0079983941912 -0.021810543525544 0)
(1.008850443342 -0.022800736101905 0)
(1.0098177147346 -0.023850548123301 0)
(1.0107550321721 -0.02477721273506 0)
(1.0118808328371 -0.025853675810393 0)
(1.0128752733757 -0.026662985628753 0)
(1.0142149735295 -0.027825676602709 0)
(1.0152068539582 -0.028396787565045 0)
(1.016886814124 -0.029782466678919 0)
(1.0000002457682 -0.00051161786690213 0)
(1.0000292437192 -0.0015502260707647 0)
(1.0000852406054 -0.0025892046158335 0)
(1.0001694455413 -0.0036316793734069 0)
(1.0002828615479 -0.0046798402791161 0)
(1.0004262196564 -0.005733852305458 0)
(1.0006000156353 -0.0067941055748943 0)
(1.0008053867953 -0.0078623564437788 0)
(1.0010435043618 -0.0089399207229763 0)
(1.0013165111097 -0.010027467965611 0)
(1.0016256688384 -0.01112306600311 0)
(1.0019735926828 -0.012225704539674 0)
(1.0023606117965 -0.013332852259953 0)
(1.0027903241094 -0.014447223714444 0)
(1.0032616810775 -0.015567549672083 0)
(1.0037812477788 -0.016700949192814 0)
(1.0043450170121 -0.017840971845081 0)
(1.0049654454244 -0.018997786922223 0)
(1.0056305411764 -0.020151039962341 0)
(1.0063645450025 -0.021322070337388 0)
(1.0071368338777 -0.022466886915057 0)
(1.0079980019563 -0.023641193358878 0)
(1.0088767521187 -0.024752644374138 0)
(1.0098835542143 -0.025936059443702 0)
(1.0108578820772 -0.026984685085295 0)
(1.0120432384472 -0.028208510856281 0)
(1.0130831923559 -0.029132985734866 0)
(1.0145122890874 -0.030466812664259 0)
(1.0155525643514 -0.031128062005295 0)
(1.0173722779551 -0.032728004550855 0)
(1.000000173062 -0.00053817180956676 0)
(1.0000274869247 -0.0016320887882734 0)
(1.0000802234015 -0.0027260704397337 0)
(1.0001595759427 -0.0038245030516463 0)
(1.0002666182787 -0.0049300720191864 0)
(1.0004021821455 -0.0060430311114091 0)
(1.0005668822705 -0.0071641948159978 0)
(1.0007620551411 -0.0082961259231127 0)
(1.0009891108053 -0.0094408605747599 0)
(1.0012505261866 -0.010599501884593 0)
(1.0015478554557 -0.011770042118547 0)
(1.0018841065003 -0.012951377186428 0)
(1.0022598569796 -0.01414075713615 0)
(1.0026791916885 -0.015341407271858 0)
(1.0031412704797 -0.01655231494998 0)
(1.0036534217241 -0.017781851987824 0)
(1.0042117508677 -0.019023313652058 0)
(1.0048299532615 -0.020288207378416 0)
(1.0054957135308 -0.021554088006799 0)
(1.0062353134354 -0.022844429358895 0)
(1.0070166534026 -0.024110528787584 0)
(1.0078940862098 -0.025413831287119 0)
(1.0087922967319 -0.026652572260062 0)
(1.0098293799856 -0.027975621151127 0)
(1.0108352880041 -0.029155473185497 0)
(1.0120695114217 -0.030533661520231 0)
(1.0131540823067 -0.031587959635942 0)
(1.0146580442918 -0.03309823261066 0)
(1.0157547615764 -0.033872403491375 0)
(1.0177010337713 -0.03569775894982 0)
(1.0000000917498 -0.00056141069864229 0)
(1.0000252369315 -0.0017040809497281 0)
(1.0000737753336 -0.0028464646698579 0)
(1.0001468663742 -0.0039943248746462 0)
(1.0002456445226 -0.0051508740956261 0)
(1.0003710376734 -0.0063164644796349 0)
(1.0005237772462 -0.0074923865760826 0)
(1.0007053938168 -0.0086820943361441 0)
(1.0009175330899 -0.0098884251214754 0)
(1.0011629992952 -0.01111297180136 0)
(1.0014436393738 -0.012353678183459 0)
(1.0017628478214 -0.013609363777382 0)
(1.0021214596953 -0.014877084959438 0)
(1.0025240419604 -0.016160632848345 0)
(1.0029699880856 -0.017459330115317 0)
(1.0034673840681 -0.018782905282212 0)
(1.0040124957096 -0.020124483560373 0)
(1.0046202488611 -0.021497008083351 0)
(1.0052780918659 -0.022875965427198 0)
(1.0060143309696 -0.024287059658829 0)
(1.0067955428389 -0.025676840821032 0)
(1.0076797939592 -0.027112676126631 0)
(1.008588005009 -0.028483271514773 0)
(1.0096457995345 -0.029951956895148 0)
(1.0106739880102 -0.031270053660681 0)
(1.0119478627995 -0.03281159128377 0)
(1.0130686231879 -0.034005465102194 0)
(1.0146386689842 -0.035704280065535 0)
(1.0157864617574 -0.036605348710747 0)
(1.0178493185999 -0.038669536415742 0)
(1.00000000255 -0.0005812165397106 0)
(1.0000225157231 -0.0017658223758253 0)
(1.000065957153 -0.0029497461329453 0)
(1.0001314324519 -0.0041402238843273 0)
(1.0002201255375 -0.005341018268747 0)
(1.0003330525909 -0.0065525858779888 0)
(1.0004710543642 -0.0077767368185814 0)
(1.0006358452474 -0.009017888032042 0)
(1.0008292947611 -0.010279747783916 0)
(1.0010545204602 -0.011564447848248 0)
(1.0013136506027 -0.012869910853207 0)
(1.001610453816 -0.01419489927944 0)
(1.0019460164845 -0.015536303641241 0)
(1.0023253781049 -0.016898533354518 0)
(1.0027481675142 -0.018281322098002 0)
(1.0032232231039 -0.019695853169873 0)
(1.0037469872197 -0.021135169930963 0)
(1.0043356157576 -0.022613747426554 0)
(1.0049763612166 -0.024105053562593 0)
(1.0056995652328 -0.025637115818677 0)
(1.0064705619986 -0.027151758572325 0)
(1.0073511553964 -0.028722427167831 0)
(1.0082586395012 -0.030228283316759 0)
(1.009326193728 -0.031847432293635 0)
(1.0103656911477 -0.033309809321382 0)
(1.0116682527531 -0.035022608032538 0)
(1.0128145410967 -0.036365023006957 0)
(1.0144404088187 -0.038264011609445 0)
(1.0156298976467 -0.039303705521245 0)
(1.0177984698185 -0.041620800418633 0)
(0.99999990724754 -0.00059754043224806 0)
(1.0000193585004 -0.0018171405577858 0)
(1.0000568686027 -0.0030356195912165 0)
(1.000113469091 -0.0042617621385001 0)
(1.0001903783586 -0.005499894690261 0)
(1.0002886908766 -0.0067505798389872 0)
(1.0004093459643 -0.0080161818624162 0)
(1.0005542258288 -0.0093021382561429 0)
(1.0007254048881 -0.010613085550539 0)
(1.0009262914368 -0.011951735043728 0)
(1.0011592741417 -0.01331601432341 0)
(1.0014284736682 -0.014704647744634 0)
(1.0017352110498 -0.016114389597556 0)
(1.00208497816 -0.0175503148323 0)
(1.002477627514 -0.019012639583815 0)
(1.0029227294117 -0.020514089391236 0)
(1.0034169022364 -0.022047714770642 0)
(1.0039775144326 -0.023629617553139 0)
(1.0045916478749 -0.025231315116428 0)
(1.0052916665079 -0.026883258732557 0)
(1.0060417356363 -0.028522602970376 0)
(1.0069073894133 -0.030229030058903 0)
(1.0078024438238 -0.031872190062478 0)
(1.0088676137472 -0.033645265442035 0)
(1.0099061048588 -0.035256658846986 0)
(1.0112247623427 -0.037147339569021 0)
(1.0123842024252 -0.038646118935653 0)
(1.014053466218 -0.040755666981893 0)
(1.0152731621829 -0.041945008413187 0)
(1.0175335937209 -0.044527047988834 0)
(0.99999980688664 -0.0006104005691595 0)
(1.0000158125299 -0.0018580651673317 0)
(1.000046643722 -0.0031041282291715 0)
(1.0000932365332 -0.0043589761200721 0)
(1.0001568296601 -0.0056275037047227 0)
(1.000238582657 -0.0069103761299477 0)
(1.000339518702 -0.008210536750586 0)
(1.0004616664906 -0.009534485249375 0)
(1.0006072808391 -0.010887831346244 0)
(1.0007800302671 -0.012273896321371 0)
(1.0009825361969 -0.013690638867386 0)
(1.0012192391129 -0.015136760932714 0)
(1.0014916700272 -0.016608913132583 0)
(1.0018057396717 -0.01811287165691 0)
(1.0021615021528 -0.019649403923354 0)
(1.0025692207492 -0.021232846032327 0)
(1.0030256763401 -0.022856347484974 0)
(1.0035494063697 -0.024537720229082 0)
(1.0041273394488 -0.026246622140372 0)
(1.0047938159297 -0.02801602612368 0)
(1.0055119047423 -0.02977851208998 0)
(1.006350815213 -0.031620146487503 0)
(1.0072210490457 -0.033401148988843 0)
(1.0082707623173 -0.035330072793593 0)
(1.0092948550701 -0.037093691651006 0)
(1.0106156247609 -0.039167403895017 0)
(1.011774429321 -0.040828973708855 0)
(1.0134727784992 -0.04315815377893 0)
(1.0147093078212 -0.044506927323694 0)
(1.0170448224158 -0.047363382284781 0)
(0.9999997037597 -0.00061987629946178 0)
(1.0000119317658 -0.0018888121388291 0)
(1.0000354377123 -0.0031556279326412 0)
(1.000071041286 -0.0044323433514134 0)
(1.0001199854116 -0.0057244171011189 0)
(1.0001834798703 -0.0070326070602122 0)
(1.0002626159125 -0.0083604519023386 0)
(1.0003595403341 -0.0097155372549965 0)
(1.0004766602176 -0.011104479531696 0)
(1.0006178631977 -0.012531226467349 0)
(1.0007859731843 -0.013993796371124 0)
(1.0009857060623 -0.015490874818277 0)
(1.0012187791409 -0.0170190504902 0)
(1.0014914698608 -0.018584815424753 0)
(1.0018040138843 -0.020189565164585 0)
(1.0021672950271 -0.02184927947491 0)
(1.002578249231 -0.023557316559 0)
(1.0030564866674 -0.02533324555226 0)
(1.0035888215782 -0.0271449968309 0)
(1.0042114479021 -0.029028129835147 0)
(1.0048864756146 -0.030910804963638 0)
(1.0056865860326 -0.032885588102922 0)
(1.0065193031824 -0.03480337677523 0)
(1.0075397613095 -0.03688843977871 0)
(1.008535388168 -0.038805679319538 0)
(1.0098429203729 -0.041065969801888 0)
(1.0109862073558 -0.042895009442361 0)
(1.0126977073425 -0.045451611331246 0)
(1.0139361838042 -0.04696846701628 0)
(1.0163279747431 -0.050106562212087 0)
(0.99999959904239 -0.00062609699765759 0)
(1.0000077720157 -0.0019097549910891 0)
(1.0000234149324 -0.0031907423660621 0)
(1.000047210184 -0.0044827228164229 0)
(1.0000803933978 -0.0057917062577096 0)
(1.0001242047532 -0.0071185278030456 0)
(1.0001797875668 -0.0084673286320492 0)
(1.0002493709766 -0.0098467815611639 0)
(1.0003354883123 -0.011264534935919 0)
(1.0004421907621 -0.012725164129824 0)
(1.000572482123 -0.014226787519242 0)
(1.0007312845589 -0.015768058920213 0)
(1.0009204961945 -0.017345564847222 0)
(1.0011466657934 -0.018966479031209 0)
(1.0014102288762 -0.020632933194731 0)
(1.0017225393054 -0.022362508213117 0)
(1.0020807535381 -0.024148952773248 0)
(1.0025053214714 -0.026013541393231 0)
(1.0029831250377 -0.027922733155926 0)
(1.0035518414458 -0.029914617649735 0)
(1.0041730689227 -0.031913216625603 0)
(1.004922249101 -0.034017646853877 0)
(1.0057049871462 -0.036069542523221 0)
(1.0066817763707 -0.038309465160153 0)
(1.0076349680179 -0.040379655607433 0)
(1.0089122145731 -0.042828304828816 0)
(1.0100249327829 -0.044826945872488 0)
(1.0117301345709 -0.047617390103545 0)
(1.0129565542194 -0.049308401844737 0)
(1.0153808369144 -0.052733813011644 0)
(0.99999949256941 -0.00062923584499229 0)
(1.0000033838459 -0.001921383387188 0)
(1.0000107325616 -0.0032102895742558 0)
(1.0000220665645 -0.0045112471532531 0)
(1.000038603522 -0.0058308002276563 0)
(1.0000615922523 -0.0071698466607244 0)
(1.0000922211727 -0.0085331331483812 0)
(1.0001327520576 -0.0099303927544328 0)
(1.0001858187892 -0.011370315245343 0)
(1.0002555531167 -0.012858078149593 0)
(1.0003451457012 -0.014391962784916 0)
(1.0004596216268 -0.015970554072371 0)
(1.0006011161788 -0.017590543190519 0)
(1.0007762626135 -0.019259671283717 0)
(1.0009858181966 -0.020980982003612 0)
(1.0012412662502 -0.022773448133104 0)
(1.0015402564778 -0.024631553338698 0)
(1.0019035140038 -0.026577961656948 0)
(1.0023185774867 -0.028578254683469 0)
(1.0028236792762 -0.030672590445086 0)
(1.0033810482636 -0.032781652689706 0)
(1.004067286654 -0.035010564548881 0)
(1.0047881689769 -0.037192469693264 0)
(1.0057067263583 -0.039583935565964 0)
(1.0066040485534 -0.04180480144461 0)
(1.0078331320252 -0.044440960177591 0)
(1.0089008439801 -0.046609012650437 0)
(1.0105761540897 -0.049635206210114 0)
(1.0117765555989 -0.051504243912835 0)
(1.0142058330345 -0.055214524799408 0)
(0.99999938137104 -0.00062950625863337 0)
(0.99999882708191 -0.0019243227373798 0)
(0.99999756747811 -0.0032152797143076 0)
(0.99999596365006 -0.0045192653582782 0)
(0.99999519439295 -0.0058433570939432 0)
(0.99999649332856 -0.007188505321057 0)
(1.0000011091324 -0.0085600598371003 0)
(1.0000112913663 -0.0099687827094806 0)
(1.0000297556395 -0.011424421420547 0)
(1.0000605863425 -0.012932700102768 0)
(1.0001071843168 -0.014492118435649 0)
(1.0001745155668 -0.016101102688085 0)
(1.0002651128904 -0.01775660095333 0)
(1.0003853921241 -0.019466716565162 0)
(1.0005367616888 -0.021235717418754 0)
(1.0007301831885 -0.023083532521413 0)
(1.0009644830535 -0.025006043534424 0)
(1.0012594307366 -0.027026463596046 0)
(1.0016046850307 -0.029110792577745 0)
(1.0020368271641 -0.031299717204313 0)
(1.0025215809211 -0.033512803210857 0)
(1.0031327924583 -0.03585865066008 0)
(1.0037814664287 -0.038165184884349 0)
(1.0046265739229 -0.040701650221019 0)
(1.0054564837998 -0.043069272598262 0)
(1.0066186325515 -0.045888454346866 0)
(1.0076303570961 -0.048224913702504 0)
(1.0092489836021 -0.051478612920081 0)
(1.0104190976945 -0.053540494976983 0)
(1.0128111678019 -0.057509469557943 0)
(0.99999926385763 -0.00062722087287845 0)
(0.99999421969249 -0.0019194976922384 0)
(0.99998423263727 -0.0032071316336604 0)
(0.99996943914321 -0.0045085979905761 0)
(0.99995095909332 -0.0058315762704035 0)
(0.99993000698953 -0.0071770554475108 0)
(0.99990789631838 -0.0085509050970302 0)
(0.99988680065914 -0.0099648593749638 0)
(0.99986951990304 -0.011429777599555 0)
(0.99986000318361 -0.012951953278503 0)
(0.99986191276322 -0.014530213547002 0)
(0.99987995809787 -0.016162723989042 0)
(0.99991724953892 -0.01784679392484 0)
(0.99997957435064 -0.019590540875357 0)
(1.0000694617629 -0.021399799249317 0)
(1.0001964350169 -0.023294813807507 0)
(1.0003616605997 -0.025273923515286 0)
(1.0005819784896 -0.027359561014136 0)
(1.0008519050763 -0.029520497814078 0)
(1.0012021575224 -0.031794902136406 0)
(1.0016079479955 -0.034105805341868 0)
(1.0021315655482 -0.036559089651412 0)
(1.0027015769701 -0.038985689469158 0)
(1.0034553148875 -0.041657369693678 0)
(1.0042122687889 -0.044168208466582 0)
(1.0052829691243 -0.047164049314363 0)
(1.0062361063382 -0.049662183253572 0)
(1.0077699996877 -0.05315713968595 0)
(1.0089096683079 -0.055376248126912 0)
(1.0112240272021 -0.059658024654367 0)
(0.99999911683866 -0.00062286999304268 0)
(0.9999897532941 -0.0019084907510554 0)
(0.99997123194709 -0.0031883491710093 0)
(0.99994322477781 -0.004482512293122 0)
(0.99990680603086 -0.0057994615950541 0)
(0.99986334936779 -0.0071402668746359 0)
(0.99981424708852 -0.0085111814656105 0)
(0.99976142661361 -0.0099247844058292 0)
(0.9997076436188 -0.011392982289038 0)
(0.99965666295051 -0.012922667700306 0)
(0.99961249169667 -0.014513230378269 0)
(0.99957960201106 -0.016162706187122 0)
(0.99956183348446 -0.017869006225161 0)
(0.999564094675 -0.019640016186978 0)
(0.99959021583689 -0.021483391596753 0)
(0.9996474970791 -0.023418912739397 0)
(0.99974021479514 -0.025448436251397 0)
(0.99988054323869 -0.027592006998599 0)
(1.0000704915761 -0.02982440727883 0)
(1.0003306282718 -0.032177104521218 0)
(1.0006526797509 -0.034584322978384 0)
(1.0010762477618 -0.037138414662543 0)
(1.0015649386003 -0.039690119513675 0)
(1.0022069328533 -0.042490313997202 0)
(1.0028942750554 -0.045157666212395 0)
(1.0038357974171 -0.048325494491054 0)
(1.0047454193879 -0.051002820580911 0)
(1.0061274738807 -0.054773449861089 0)
(1.0072984211279 -0.057134129994277 0)
(1.0094634165082 -0.062002935589386 0)
(0.9999988668743 -0.00061766621225294 0)
(0.99998500082804 -0.0018950049281374 0)
(0.99995824630939 -0.0031658917793573 0)
(0.99991707286333 -0.0044521149377423 0)
(0.99986248175921 -0.0057628611503307 0)
(0.99979634323668 -0.0070990419381665 0)
(0.9997202059942 -0.0084672211850877 0)
(0.99963565748723 -0.0098809427016242 0)
(0.99954522701839 -0.011353175706659 0)
(0.99945232949245 -0.012891356096101 0)
(0.99936110370597 -0.014495394247021 0)
(0.99927591144672 -0.016163132665309 0)
(0.99920128260522 -0.017893283214139 0)
(0.99914159536034 -0.019693803402833 0)
(0.99910171866148 -0.021574931469821 0)
(0.99908701201617 -0.023556043545839 0)
(0.99910406387086 -0.025643594191437 0)
(0.99916064697626 -0.027853762919416 0)