/*--------------------------------*- C++ -*----------------------------------*\
| =========                 |                                                 |
| \\      /  F ield         | OpenFOAM: The Open Source CFD Toolbox           |
|  \\    /   O peration     | Version:  2112                                  |
|   \\  /    A nd           | Website:  www.openfoam.com                      |
|    \\/     M anipulation  |                                                 |
\*---------------------------------------------------------------------------*/
FoamFile
{
    version     2.0;
    format      ascii;
    arch        "LSB;label=32;scalar=64";
    class       volScalarField;
    location    "12.5";
    object      p;
}
// * * * * * * * * * * * * * * * * * * * * * * * * * * * * * * * * * * * * * //

dimensions      [0 2 -2 0 0 0 0];

internalField   nonuniform List<scalar> 
22000
(
0.020289791211696
0.020268409213325
0.020224260870109
0.020156193525526
0.020063696674559
0.019946807424328
0.019805818276884
0.019641045704633
0.019452738692286
0.019241094185617
0.0190063045379
0.018748593269783
0.018468221978953
0.018165491374073
0.017840730576641
0.017494303219134
0.017126592943373
0.016738024681001
0.016329035515937
0.015900122759507
0.015451775616024
0.014984579583244
0.014499060893975
0.013995922000798
0.013475689767485
0.012939244040879
0.0123870201824
0.011820208796401
0.011238935830058
0.010644951164248
0.020691148175538
0.02066852709348
0.020622800562785
0.020552932942146
0.020458373695967
0.020339085361878
0.020195306634432
0.020027325425231
0.019835376230389
0.01961964693145
0.019380320617517
0.019117610549027
0.018831764938229
0.018523071373591
0.018191843491412
0.01783843390677
0.017463211459464
0.017066595527275
0.016649007609228
0.016210947938053
0.015752884105619
0.015275419454329
0.014779043273405
0.014264504329346
0.013732253701814
0.013183274237924
0.012617824816266
0.012037308572975
0.011441408831081
0.010832179970242
0.021427874734652
0.021404348462002
0.021356886319257
0.021284518359531
0.021186733019997
0.021063489972013
0.020915003076278
0.020741532216905
0.02054328758282
0.020320436813168
0.020073142283357
0.019801596111164
0.019506022028617
0.019186685053786
0.018843872204606
0.018477915970057
0.018089157114219
0.017678002003406
0.017244840437278
0.016790174287483
0.016314428966989
0.015818239043137
0.015302025207498
0.014766626809741
0.014212358983827
0.013640421897709
0.013050762776378
0.012445266661653
0.011822817796048
0.011186228377461
0.022453557061725
0.022429039121393
0.022379583058521
0.022304197752248
0.022202367529119
0.022074047540789
0.021919438577268
0.021738778512587
0.021532248745505
0.021299985742953
0.021042117617313
0.020758802182058
0.020450224711257
0.020116614378264
0.019758215801373
0.01937532766475
0.018968244589159
0.018537348185633
0.018082975907965
0.017605625436547
0.017105654177024
0.01658373450163
0.016040179710407
0.015475951632863
0.014891158561302
0.014287300992409
0.013663854591128
0.01302336676853
0.012363520329661
0.011688163044401
0.023728126538264
0.023702495354574
0.02365079201748
0.023571989427954
0.023465551865328
0.023331418270832
0.023169768968909
0.022980812525406
0.022764690883635
0.022521495552054
0.022251304005243
0.021954222577705
0.021630379102953
0.021279948247655
0.020903110879076
0.020500112465561
0.020071177333903
0.01961664402165
0.019136769886516
0.018632034877433
0.01810269423313
0.017549455745194
0.01697247702854
0.016372864506332
0.015750439700646
0.015107077387526
0.014441622058871
0.013757473185747
0.013050752861762
0.012326682541984
0.025216278519484
0.025189483555491
0.025135429653018
0.02505305195907
0.024941788932708
0.024801552852616
0.024632490578641
0.02443476706816
0.024208468960817
0.023953625575615
0.023670244283552
0.023358359126559
0.023018017118978
0.022649314725114
0.02225234211966
0.021827266119936
0.021374210135371
0.020893444457319
0.020385111242352
0.019849651500329
0.019287175964103
0.018698417573855
0.018083322578548
0.017443155391071
0.016777364229186
0.016088266691431
0.015373914982088
0.014638742401148
0.01387694893391
0.013095433094124
0.026886137549473
0.026858216847962
0.026801886054541
0.026716042296089
0.026600093548416
0.026453914964053
0.026277605638779
0.026071270457132
0.025834922379127
0.025568508655083
0.025271944253944
0.024945166905906
0.024588115651307
0.024200780645096
0.023783129368257
0.02333521891155
0.022857034867274
0.022348747255801
0.021810340418394
0.021242187067418
0.020644202674136
0.020017125359096
0.019360624270672
0.018676125683095
0.017962608842807
0.017222888021875
0.016454050711717
0.015661725196788
0.014837814577072
0.013991154592927
0.028708205435306
0.028679282530068
0.028620920809406
0.028531980883299
0.028411835730938
0.02826031252308
0.028077447591618
0.027863268237441
0.027617693975447
0.027340568382013
0.027031689627364
0.026690872539817
0.026317917908179
0.025912677723352
0.025474960383516
0.025004677045622
0.024501632740742
0.023965858448757
0.023397130628913
0.022795715826757
0.022161274215622
0.021494518952738
0.020794766695446
0.020063595147052
0.019299407068534
0.018505552352072
0.017677971665109
0.016823625829514
0.015931740693284
0.015013301735582
0.030654708977763
0.030624988333618
0.03056500469323
0.030473585525158
0.030350065016247
0.030194211409975
0.03000598286782
0.029785311162524
0.029532002147337
0.029245773471264
0.028926281132142
0.028573189004607
0.028186127398645
0.027764775693115
0.027308743639669
0.0268177562368
0.026291390536674
0.025729493852572
0.025131578217698
0.024497757787061
0.023827369115097
0.023121058336097
0.02237770305436
0.021599008274849
0.020782683060463
0.01993263149592
0.019043458659863
0.018123570452541
0.017159132875368
0.01616342863675
0.032699269685446
0.032669029460149
0.032607981699593
0.032514925381896
0.032389152710843
0.032230362612614
0.03203842030348
0.031813144753332
0.031554208663267
0.031261182084305
0.030933553874484
0.030570808871937
0.03017237433086
0.029737721520301
0.029266220537039
0.028757367465085
0.028210461069991
0.027625115730591
0.027000518009519
0.02633657601051
0.025632228164487
0.024888000569689
0.024102238413115
0.023276731083744
0.022408365444193
0.021501593741046
0.020549487762345
0.019561971706082
0.018521782113013
0.017444575035802
0.034816796733817
0.034786379058613
0.034724956561525
0.034631301761807
0.034504661404684
0.034344656715749
0.03415104775099
0.033923525771257
0.033661613045297
0.033364712275789
0.033032122106108
0.032663121693275
0.032256904148302
0.031812697777327
0.031329592782556
0.030806812702191
0.030243327354354
0.029638465418154
0.028991025460436
0.028300648185554
0.027565798012941
0.026786814313553
0.025961416365476
0.025091416210453
0.024172755668794
0.02321039120285
0.022195667140925
0.021140020942776
0.020022387768026
0.018860763551028
0.036983549091638
0.03695334303806
0.036892336671122
0.036799278178105
0.036673364790078
0.036514132932517
0.036321228048455
0.036094201928558
0.035832412773481
0.035535079735638
0.035201291982342
0.034830099518064
0.034420433855377
0.03397124780925
0.033481314856702
0.032949543010275
0.032374525679026
0.031755249991211
0.031090067930407
0.030378280461476
0.029617810411157
0.028808717678347
0.027948024311461
0.027037452484215
0.026071924119387
0.025056785077171
0.023981567971806
0.022859051846439
0.021664230765994
0.020416710642175
0.039177281366923
0.039147710879116
0.03908797616059
0.038996811614023
0.0388733657341
0.038717084978398
0.038527492908917
0.038303993451302
0.03804577104223
0.037751849047079
0.037421092799638
0.037052304824121
0.036644133585314
0.036195228461631
0.035704015485448
0.035169046638825
0.034588498471486
0.033960958520213
0.033284283366134
0.032557349780305
0.031777487554602
0.030944353986454
0.030054229605655
0.029108570878787
0.028101270826175
0.027037782005195
0.025906008625552
0.024719445889187
0.023449944353815
0.022117566776308
0.041377398037232
0.041348904644449
0.041291332111723
0.04120341627473
0.041084262071536
0.040933223797024
0.040749698607678
0.04053293814286
0.04028194888358
0.039995552610785
0.039672382255411
0.039310980182586
0.038909696774499
0.038466857682169
0.037980518163952
0.037448841354379
0.036869551946222
0.036240788610755
0.035559862733387
0.034825157170431
0.034033341662032
0.033183572211132
0.032271314369349
0.031297597472809
0.03025524903183
0.029149544693209
0.027966797206934
0.026720905747898
0.025380711157583
0.023966643794026
0.04356512895322
0.043538156754519
0.043483643469245
0.043400343719924
0.043287327167833
0.04314385771009
0.042969205494664
0.042762469885365
0.04252248037158
0.042247857851393
0.041937001878501
0.041588191135429
0.041199470204593
0.040768829463377
0.040293937197616
0.039772547421035
0.039201903475021
0.038579660920796
0.037902536212309
0.037168367331245
0.036373086326556
0.035515280822957
0.034589483532915
0.0335962255524
0.032527082969221
0.031387119804326
0.030160727194635
0.028862304948541
0.02745699424238
0.025965591876362
0.045723684221656
0.045698665949299
0.045648087018677
0.045570740228308
0.045465670778614
0.04533205693533
0.045169045409521
0.044975588453177
0.044750345406245
0.044491743674871
0.044197955862546
0.043867001819995
0.043496622631412
0.04308447276376
0.04262782740513
0.042124021421287
0.04156979930225
0.040962310852998
0.040297640485804
0.039573039831145
0.038783637903953
0.037927390539842
0.036997796217281
0.035994804671552
0.03490859049033
0.033743917916299
0.032483003071164
0.031140648535246
0.029677746998988
0.028115083472843
0.04783836312449
0.047815706941552
0.047769890123018
0.047699763769086
0.047604360823682
0.047482781852641
0.047334057876226
0.047157004224137
0.046950122838287
0.046711661561316
0.046439579960463
0.046131652399441
0.0457853283063
0.045397936326154
0.044966365085882
0.044487533061662
0.043957680857957
0.043373443456557
0.042730251080313
0.042024742058155
0.041251191505097
0.04040687223997
0.039484154022994
0.038482329128653
0.037390018534599
0.036211603439852
0.034926887758644
0.033550987901916
0.032039987697883
0.030414144808257
0.049896608852087
0.049876687446576
0.049836389729291
0.049774646997039
0.049690494236928
0.049582964249707
0.049450983340788
0.049293244401511
0.04910811004867
0.048893668629798
0.048647687995993
0.048367718550783
0.048050939670928
0.047694374566324
0.047294543854257
0.046847965322324
0.046350386158367
0.045797931432062
0.045185371317438
0.044508720943518
0.043761369341034
0.042939875621976
0.042035402090891
0.041046521188868
0.039960136072013
0.038780153240276
0.037483703589252
0.036086188200845
0.034538354255017
0.032859621631568
0.051888003638328
0.051871146749847
0.051837038781206
0.051784711858915
0.051713218006003
0.051621536245981
0.051508503982755
0.051372709831748
0.051212398757595
0.051025523349626
0.050809687088013
0.050562244959522
0.050280137991661
0.049960114024018
0.049598357591036
0.049191012647225
0.04873336013182
0.048221033450875
0.047648156949735
0.047010125431969
0.046299432953931
0.045511913051602
0.044637472431913
0.043673940934416
0.042606363452778
0.041438091183616
0.040143187879615
0.038737265476731
0.037164961396105
0.035445359306333
0.053804205058098
0.05379069720016
0.05376335657464
0.05372133342112
0.053663709977193
0.053589426396025
0.05349725138062
0.053385692993823
0.053252906031481
0.053096734817523
0.052914650998961
0.052703846553672
0.052461064033082
0.05218281119822
0.0518649824821
0.051503382334915
0.051092875190921
0.050628628080395
0.050104166191293
0.04951426985864
0.0488505680532
0.048108149593925
0.04727566189444
0.046350175141404
0.045314846579676
0.04417246141188
0.042893884131897
0.041494266718837
0.03991186926457
0.038163598403559
0.055638827499115
0.055628909716724
0.055608820990502
0.055577841390129
0.055535098914551
0.055479511381242
0.055409795817242
0.05532440098519
0.055221421343904
0.055098624785552
0.054953393570632
0.054782796978064
0.054583431328121
0.054351602159856
0.054082973763898
0.053773040916084
0.05341632708119
0.053007547601434
0.052539728812578
0.052007019092734
0.051400309037934
0.05071386145609
0.049935190159441
0.049060434238268
0.048070971411916
0.046968970906462
0.045722340223019
0.044345862109757
0.042770008559459
0.041006083057259
0.057387288197587
0.057381146219149
0.057368691606795
0.057349336507857
0.057322281308767
0.05728644200126
0.057240495168057
0.057182850971986
0.057111569459715
0.057024365398407
0.056918571254823
0.056791172853529
0.056638685093112
0.056457258460226
0.056242415513687
0.055989371113946
0.055692420893192
0.055345807926935
0.054942227699533
0.054475090638573
0.05393484039741
0.053314666570686
0.05260142439441
0.051789798553326
0.05085987117509
0.049812340607103
0.04861264132832
0.047276346776447
0.045726101330424
0.043968197968909
0.05904669546797
0.059044374432917
0.059039738068666
0.059032358328796
0.059021547966238
0.059006238043273
0.058985044674017
0.058956349867933
0.05891821174786
0.058868334588166
0.058804050250923
0.058722285846356
0.058619512399385
0.058491746399764
0.0583344480035
0.058142578239626
0.057910361782094
0.057631540596367
0.057298741117225
0.056904407444783
0.056439033561073
0.055894092646521
0.055256886891946
0.05451921461903
0.053662053698193
0.052681253055893
0.051542327662334
0.050255996045387
0.048743049825739
0.047013991996944
0.060615930908981
0.060617259780899
0.060620184577747
0.060624658225156
0.060630145504416
0.060635610542391
0.060639664530721
0.060640603162136
0.060636396083713
0.060624754988012
0.060603108286751
0.060568424885332
0.060517215507788
0.060445398781122
0.060348391625201
0.060220856259501
0.060056988707192
0.059849957635083
0.059592555678386
0.059276045788486
0.058891614605308
0.058428128461982
0.057874988210508
0.057218210139763
0.056444349112996
0.055537286737726
0.054474608956918
0.053238379100056
0.051763930970071
0.05003059632423
0.062095966083434
0.062100971638642
0.062110843181862
0.062126607264478
0.062147850418319
0.062173288770388
0.062201915311347
0.062232178174129
0.062261859240399
0.062288516944014
0.062309536552373
0.062321957223125
0.062322501678741
0.062307255749131
0.062271831062474
0.062210800755362
0.062118348941927
0.061987041785566
0.061809689360884
0.061576349930339
0.061278952473267
0.060903669746388
0.060442584863217
0.059875009838172
0.059196758726494
0.058374442422843
0.057413500892091
0.056248982157751
0.05487320416183
0.05305264689019
0.010075298931666
0.0095326040035198
0.0089805660920276
0.0084203559292134
0.0078530012494547
0.007279288990915
0.0066998848432765
0.0061154432351681
0.0055266550056073
0.0049342547507656
0.0043390067338487
0.0037416843406645
0.0031430584702156
0.0025438973091094
0.0019449678982889
0.0013470341422733
0.00075085462479277
0.00015718097462371
-0.00043324436879118
-0.001019690444768
-0.0016014398635291
-0.0021777881971603
-0.0027480406828515
-0.0033115033891627
-0.00386748259963
-0.0044153852432395
-0.0049548595731412
-0.00548538971384
-0.006006398622245
-0.0065173482873307
-0.0070177705304435
-0.0075072579763423
-0.0079854514658969
-0.0084520300964505
-0.0089067120589949
-0.0093492497518052
-0.0097794377200226
-0.010197103064614
-0.010602121840112
-0.0109943952514
-0.011373883854924
-0.011740553833685
-0.012094454660545
-0.012435602402073
-0.012764151527561
-0.013080139470134
-0.013383869639649
-0.013675348195499
-0.013955175804
-0.014223269948412
0.010250828225129
0.0096996881992311
0.0091378510010773
0.0085676957218084
0.0079906911333753
0.0074074905627242
0.0068184870818968
0.0062241335121888
0.0056250288809769
0.0050218959615355
0.0044155174560905
0.0038066811488587
0.003196163560244
0.0025847403737422
0.0019731961033773
0.0013623230462332
0.00075291688413647
0.00014577410304434
-0.00045831077235555
-0.0010585496927129
-0.0016541661822447
-0.0022444020995961
-0.0028285286535357
-0.0034058667643696
-0.0039758023965217
-0.0045376810926068
-0.0050906313275194
-0.0056340178401306
-0.0061673246468114
-0.0066900604771171
-0.0072017440679613
-0.0077019178656855
-0.0081901641702745
-0.008666105748793
-0.0091294133159837
-0.0095797971081802
-0.010017020829293
-0.010440881194945
-0.010851237816547
-0.011247966478546
-0.011631027448127
-0.012000361027439
-0.01235604095376
-0.012698040121164
-0.013026576597525
-0.013341585395966
-0.013643493639024
-0.013932011830927
-0.014207872460036
-0.014469898444414
0.010580945727654
0.010007439920468
0.0094201334731673
0.0088241368011626
0.0082220758067628
0.0076145082201101
0.0070013921837425
0.0063828690117202
0.0057594376223601
0.0051318675986583
0.0045010337504119
0.0038677915572437
0.0032329514891222
0.0025973131848838
0.0019616914287318
0.0013269155609724
0.0006938219210048
6.3250451553865e-05
-0.00056395943818229
-0.0011869755752985
-0.0018049790810307
-0.0024171668125965
-0.0030227513444858
-0.0036209555482051
-0.0042110027390226
-0.0047921343986789
-0.0053636964718269
-0.0059250428052025
-0.006475563038454
-0.0070146883274869
-0.0075418899372286
-0.0080566759281076
-0.0085585994273718
-0.0090472556478666
-0.0095222948801264
-0.0099834073803846
-0.010430347128009
-0.010862895181427
-0.011280913780716
-0.011684262119421
-0.012072921419316
-0.012446803910493
-0.012806038484966
-0.01315053324428
-0.013480630154958
-0.013796095042395
-0.014097607952004
-0.014384381561547
-0.014657479195125
-0.014913775227338
0.011047381455936
0.010438564169023
0.009811644001429
0.0091760554564237
0.0085361448738873
0.0078922356219291
0.0072435677829969
0.0065897935317813
0.0059312595546175
0.0052687993406465
0.0046034079190914
0.0039360167261586
0.0032674575983746
0.002598533853831
0.0019300724086541
0.001262924812309
0.00059795480781802
-6.3965542139398e-05
-0.0007219600639168
-0.0013751567113285
-0.0020226937924717
-0.0026637216723402
-0.0032974048424798
-0.0039229280408004
-0.004539506621265
-0.0051463909824723
-0.0057428434437237
-0.006328170237752
-0.0069017188523151
-0.0074628754305939
-0.008011069873087
-0.0085457737350747
-0.0090665098609999
-0.0095728437787093
-0.010064401266994
-0.010540844183882
-0.011001908110593
-0.011447345361928
-0.011877010968244
-0.012290730150916
-0.012688497552376
-0.01307017172301
-0.013435936455057
-0.013785591822376
-0.014119622094872
-0.014437531456281
-0.014740301628007
-0.015026374884666
-0.015297135177653
-0.01554640374479
0.011640540983234
0.010985107246375
0.010305934655643
0.0096184239354649
0.0089291947798943
0.0082381556780744
0.0075435170650667
0.0068442635929165
0.0061405510442495
0.0054333075093645
0.004723686558152
0.0040127115155554
0.0033012305327278
0.0025900400781758
0.0018799726441398
0.0011718994435622
0.00046671076399992
-0.00023468973779213
-0.00093138991177292
-0.0016224800217996
-0.0023070611555544
-0.0029842467840032
-0.0036531644945764
-0.0043129603176981
-0.0049628039402294
-0.0056018923136393
-0.0062294523223263
-0.0068447443382686
-0.0074470685367607
-0.0080357654193402
-0.0086102226944265
-0.0091698712564446
-0.0097141969490633
-0.010242727299613
-0.010755055189535
-0.011250805345529
-0.011729687137473
-0.012191414421222
-0.012635827473086
-0.013062704729234
-0.013472047734009
-0.013863641851107
-0.014237721522052
-0.014593943392361
-0.0149329384355
-0.015253874002218
-0.015558070248106
-0.015842989503741
-0.016110398326007
-0.016350191324884
0.012355240610789
0.01164270684289
0.010899224866614
0.0101479853026
0.0093984823096933
0.0086500052964244
0.0078993988519607
0.0071448008911549
0.0063861525767536
0.0056245229013673
0.0048612716715741
0.0040975355336148
0.0033341779560645
0.0025719807566383
0.0018117783470839
0.0010544625304616
0.00030095196628648
-0.00044781649817192
-0.0011908934631843
-0.0019273308103975
-0.0026561915254977
-0.0033765496832744
-0.0040874904128558
-0.0047881139183763
-0.005477541909807
-0.0061549251327498
-0.0068194465037385
-0.0074703205781414
-0.0081068008209002
-0.0087281808034314
-0.0093338026908244
-0.0099230517979795
-0.010495370775754
-0.011050242904255
-0.011587221836224
-0.012105888768276
-0.012605920207872
-0.013086984178796
-0.01354890022159
-0.013991390837032
-0.014414461233874
-0.014817812606522
-0.015201731963064
-0.015565719032874
-0.015910556504619
-0.016235035001363
-0.016540826012331
-0.016824186438879
-0.017087275649593
-0.017314966338321
0.013189143860734
0.012409498604146
0.011589901999577
0.010763402012804
0.0099430156429847
0.0091271571009701
0.008310918913913
0.0074913997179051
0.0066683118724468
0.0058429237695487
0.0050168557784684
0.0041913797654868
0.0033673714332306
0.0025455895194809
0.0017268672399566
0.0009121187775829
0.00010229449403523
-0.00070163277980464
-0.0014986739499533
-0.0022878398787881
-0.003068152721559
-0.0038386443615337
-0.0045983549722648
-0.0053463376989322
-0.0060816666333963
-0.0068034446522095
-0.007510803202425
-0.0082029057640636
-0.0088789548621451
-0.009538192456434
-0.010179908987429
-0.01080343739069
-0.011408169413363
-0.011993536335113
-0.012559043244444
-0.013104218805209
-0.013628695724357
-0.01413208494629
-0.014614172750226
-0.015074610062622
-0.015513394137685
-0.015930121138715
-0.016325124430912
-0.016697734471755
-0.01704888945318
-0.017377046424934
-0.017684259305544
-0.017965648370496
-0.018223791046166
-0.018437734176113
0.014142623217271
0.013286174190086
0.012378710246044
0.011465511440529
0.010563821373009
0.009670854355228
0.0087795014589483
0.0078856127684019
0.006988670604566
0.0060902166056312
0.005192191697635
0.0042960251605022
0.0034026017416193
0.002512648112358
0.001626993651686
0.00074657884850772
-0.00012760866031491
-0.00099455477972241
-0.0018532260179207
-0.0027025883174735
-0.0035416194366666
-0.004369305464609
-0.0051846377906062
-0.0059866182355423
-0.006774267923764
-0.0075466356051489
-0.0083027955872674
-0.0090418536521661
-0.0097629540503426
-0.010465279589169
-0.011148060829181
-0.011810570110358
-0.012452138470887
-0.013072135709142
-0.013670006618615
-0.014245216983793
-0.014797340849654
-0.015325921511662
-0.015830693404107
-0.01631122423765
-0.016767480759978
-0.017198932972415
-0.017605935117854
-0.017987590911974
-0.01834494006918
-0.01867601295844
-0.018982963883417
-0.019259944968636
-0.019508883153071
-0.019703741492549
0.0152181850252
0.014275438384203
0.013268236666676
0.01225683538836
0.011263479078976
0.010283776407849
0.0093078879923771
0.0083301834633962
0.0073499304724303
0.0063690399079033
0.0053898439757784
0.0044139507016023
0.0034422468667753
0.0024754185394402
0.0015142913608093
0.00055983836570572
-0.00038690753920406
-0.0013248841520061
-0.0022530079049075
-0.0031701943921157
-0.0040753716035963
-0.0049674743198903
-0.0058454391164196
-0.006708210017135
-0.007554748236306
-0.0083840415273218
-0.0091951000065869
-0.0099869640020602
-0.010758710937963
-0.011509455909895
-0.012238359954075
-0.01294462486067
-0.013627509670194
-0.014286311654677
-0.014920401179362
-0.015529169609134
-0.01611211379728
-0.016668698964898
-0.017198579388483
-0.01770123436484
-0.018176554929139
-0.018623887687489
-0.019043553808116
-0.019434411114112
-0.019797631810633
-0.020130620508256
-0.020435972062843
-0.02070604445471
-0.020942772953237
-0.021112650551229
0.016419885229724
0.015381480793431
0.01426246943347
0.013141223755245
0.012045817244731
0.010969759165473
0.0098998839176212
0.0088288369655569
0.0077557029615942
0.0066828747008812
0.0056131524420681
0.0045483440610819
0.0034893301830443
0.0024367460445203
0.0013914143628564
0.0003543505493202
-0.00067335606034273
-0.0016905858394816
-0.002696197506439
-0.0036890497240319
-0.0046680140317265
-0.0056319667535234
-0.0065797821024455
-0.0075103385805253
-0.008422529510285
-0.0093152735074349
-0.01018750771361
-0.011038198178357
-0.011866345801819
-0.012670987688447
-0.013451204105773
-0.014206115075812
-0.014934894590787
-0.015636754570485
-0.016310976401189
-0.016956862442575
-0.017573815485906
-0.018161205795029
-0.018718589801543
-0.019245337284168
-0.019741245577801
-0.020205519640334
-0.020638404883049
-0.021038560787988
-0.021407114385362
-0.02174109877165
-0.02204316070323
-0.022304206099457
-0.022525992743588
-0.022666788231296
0.017752783028836
0.016609395899869
0.015366237747259
0.014123396386636
0.012915607295535
0.01173361632177
0.010560236675953
0.009386165577455
0.0082103955749052
0.0070359441321718
0.0058661541637283
0.0047030447504197
0.0035474787519588
0.002400033275957
0.0012615316192859
0.0001330427034117
-0.00098427380999986
-0.0020892292769221
-0.0031806160823052
-0.0042572278647116
-0.0053178710348961
-0.0063613544338565
-0.0073864806777782
-0.0083920535788167
-0.0093768891327416
-0.010339827331802
-0.011279722301207
-0.01219545540125
-0.013085939581546
-0.01395012292452
-0.014786992012593
-0.015595572483379
-0.016374938837425
-0.017124204177406
-0.017842543976114
-0.018529157523424
-0.019183334262411
-0.019804336382358
-0.020391596677515
-0.020944367592562
-0.021462318337828
-0.021944505080196
-0.022391074536867
-0.022800444049536
-0.023173729949395
-0.023507488069211
-0.023804407330499
-0.024053888950346
-0.024256966119633
-0.024362918509277
0.019222589117637
0.017964830681126
0.016584869180266
0.015208545747658
0.013878097714317
0.012580680210159
0.011294263011637
0.010007356715898
0.0087190105875519
0.0074330587585401
0.0061534663352472
0.0048824596892318
0.0036208663195911
0.0023692020087909
0.0011283008923097
-0.00010069775108229
-0.0013165473037929
-0.0025179765061831
-0.0037037007649129
-0.0048724395805734
-0.0060229243692625
-0.0071538855983837
-0.0082640431372603
-0.0093521151554624
-0.01041682922386
-0.011456935610652
-0.012471193790121
-0.013458388958296
-0.014417333540103
-0.015346873776753
-0.016245888400693
-0.017113295636238
-0.017948053991479
-0.018749163810031
-0.019515676633767
-0.020246674432462
-0.02094131169599
-0.02159872998969
-0.022218211182233
-0.02279888423487
-0.023340248797876
-0.023841217826164
-0.024301782295199
-0.024720103870639
-0.025097268067853
-0.02542921659957
-0.025718786060157
-0.025953646896168
-0.026133958787954
-0.026199557369167
0.020835319215992
0.019453438702211
0.017923773176771
0.016402161979163
0.014938944889294
0.013516675118979
0.012107627855858
0.010697936630732
0.0092869026671492
0.0078793915560824
0.0064800743448798
0.0050913731205487
0.0037140534004095
0.0023485674763485
0.00099577771304223
-0.00034308432380581
-0.0016666650972408
-0.0029735952524923
-0.0042625011393604
-0.005532016061624
-0.0067807833762186
-0.0080074417539243
-0.0092106149805543
-0.010388922664685
-0.011540991200998
-0.012665468438847
-0.013761006428166
-0.014826280750596
-0.015859989601387
-0.016860863489255
-0.017827658443007
-0.018759169569951
-0.019654223506523
-0.020511692239467
-0.021330484137876
-0.022109548881178
-0.022847885474068
-0.023544497801304
-0.024198498313973
-0.024808866538049
-0.025374923861071
-0.025895400560586
-0.026370128056297
-0.0267969805457
-0.027177001256924
-0.027505484479529
-0.027785434876766
-0.028002528911426
-0.0281558456116
-0.028174834341103
0.022596300481219
0.021080906303612
0.019388402445872
0.017709732529108
0.016103861315525
0.014547434175276
0.013006122288057
0.011463578633592
0.0099196167453431
0.0083803558320654
0.0068512403063836
0.0053348649368367
0.0038319066935354
0.0023427577599515
0.00086833468889389
-0.00059000794194184
-0.0020307862227175
-0.0034525162964494
-0.0048537213079045
-0.0062329341161605
-0.0075886943960393
-0.0089195325982094
-0.010223960547515
-0.01150048396131
-0.012747613258191
-0.013963879018787
-0.015147811550781
-0.016297961710816
-0.017412899140667
-0.018491221680103
-0.019531547914404
-0.020532532504167
-0.021492854281001
-0.022411238196876
-0.023286433901355
-0.024117239493447
-0.024902480960823
-0.025641005078811
-0.026331739245728
-0.026973489976596
-0.027565389395365
-0.02810595992204
-0.028594857136109
-0.029029665404674
-0.029411341992254
-0.029734546099442
-0.030002517400776
-0.030198589402233
-0.030321340694082
-0.030288185634656
0.024509181999361
0.022851675266073
0.020983627495488
0.019136510319581
0.017378415051008
0.015678677087539
0.013995457262032
0.012309910505645
0.010622691833416
0.008941405193331
0.0072723139679985
0.0056181453822706
0.00397945894032
0.0023565995240339
0.0007505745025599
-0.00083710264514295
-0.002404790533529
-0.0039508714266363
-0.0054737489877203
-0.0069718375047951
-0.0084435532392971
-0.0098872988932826
-0.011301455952072
-0.012684398417425
-0.014034503826751
-0.015350168040257
-0.016629783298529
-0.017871757985207
-0.019074517391624
-0.02023650869932
-0.021356197209217
-0.022432076774216
-0.023462664724193
-0.024446517450914
-0.025382212614331
-0.026268373117776
-0.027103642503298
-0.02788668527156
-0.028616235100393
-0.029290904768913
-0.029909628090075
-0.030470703865912
-0.030973608756484
-0.031415619439303
-0.031797604752827
-0.032113608678675
-0.03236706718332
-0.032538857762569
-0.032627506480987
-0.032534592980245
0.026576443174346
0.024768862171317
0.022713110179241
0.020686818383953
0.018767497359676
0.016915605783715
0.015080916371186
0.013242204716962
0.011401397355784
0.0095678209470838
0.0077485584123815
0.0059463993100325
0.0041617639776125
0.0023949830091369
0.00064720422154385
-0.0010798581950038
-0.0027843773671036
-0.0044645809155987
-0.0061187318956584
-0.0077451030731216
-0.0093419629017704
-0.010907561971754
-0.012440129512361
-0.013937887431695
-0.01539906084059
-0.016821891452595
-0.018204614876487
-0.019545477126559
-0.020842741668002
-0.022094682924081
-0.023299597334854
-0.024455795229598
-0.025561620708162
-0.026615433186582
-0.027615635930868
-0.028560639728939
-0.02944891330111
-0.030278894622106
-0.031049143169235
-0.031758030265526
-0.03240431960252
-0.032986045043866
-0.033502541849668
-0.033950738173253
-0.034331462331916
-0.034638090749979
-0.034874197147954
-0.035018322987345
-0.035068345437956
-0.034909079265942
0.028798905552422
0.02683391296961
0.02457902831609
0.022363756710265
0.020275019498325
0.018262613375837
0.01626709159802
0.014265155040428
0.012260543950652
0.010264537433163
0.0082849873746201
0.0063246489779743
0.0043837893667153
0.002462780160998
0.00056297538714864
-0.0013136648119327
-0.0031650979546623
-0.0049893712724566
-0.006784581521607
-0.0085488316245187
-0.010280213225821
-0.011976796327937
-0.013636630241194