/*--------------------------------*- C++ -*----------------------------------*\
| =========                 |                                                 |
| \\      /  F ield         | OpenFOAM: The Open Source CFD Toolbox           |
|  \\    /   O peration     | Version:  2112                                  |
|   \\  /    A nd           | Website:  www.openfoam.com                      |
|    \\/     M anipulation  |                                                 |
\*---------------------------------------------------------------------------*/
FoamFile
{
    version     2.0;
    format      ascii;
    arch        "LSB;label=32;scalar=64";
    class       volVectorField;
    location    "12.5";
    object      U;
}
// * * * * * * * * * * * * * * * * * * * * * * * * * * * * * * * * * * * * * //

dimensions      [0 1 -1 0 0 0 0];

internalField   nonuniform List<vector> 
22000
(
(1.0000009388755 -2.5411761904192e-05 0)
(1.0000263634951 -7.659338588961e-05 0)
(1.0000751728786 -0.00012716815882136 0)
(1.0001482030808 -0.00017714627001368 0)
(1.0002457421303 -0.00022665907082428 0)
(1.0003676230781 -0.0002757431282196 0)
(1.0005134639998 -0.00032438261579182 0)
(1.0006828946016 -0.00037257523692944 0)
(1.0008756369488 -0.00042030801856285 0)
(1.0010914842797 -0.00046755018108805 0)
(1.0013302130207 -0.0005142144757553 0)
(1.0015915631008 -0.00056023942898705 0)
(1.0018752046558 -0.00060553781999034 0)
(1.002180809818 -0.00065013092959332 0)
(1.0025079984313 -0.00069394357840143 0)
(1.002856450329 -0.00073706783392366 0)
(1.0032257437987 -0.00077930690435492 0)
(1.003615566018 -0.00082083546852326 0)
(1.0040253731017 -0.00086119924194125 0)
(1.0044548559565 -0.00090085720165118 0)
(1.004903251479 -0.00093887406219304 0)
(1.0053703417457 -0.00097644141834494 0)
(1.0058550163204 -0.0010115498521809 0)
(1.00635736237 -0.001047062539545 0)
(1.0068756540013 -0.0010784642790162 0)
(1.0074106885246 -0.0011124286103971 0)
(1.0079595587706 -0.0011386474171511 0)
(1.0085245837094 -0.0011725589725262 0)
(1.0091005223431 -0.0011905177891942 0)
(1.0096929364733 -0.0012281601191511 0)
(1.0000003962637 -7.4773005158014e-05 0)
(1.0000257984704 -0.00022550834156909 0)
(1.0000748659881 -0.00037466990046198 0)
(1.0001483762816 -0.00052224028485773 0)
(1.000246686218 -0.00066855505042555 0)
(1.0003697139044 -0.00081368815330345 0)
(1.0005171280132 -0.00095757447595554 0)
(1.0006885877786 -0.0011002017355568 0)
(1.0008838243871 -0.0012415369693768 0)
(1.0011026564928 -0.0013814985995207 0)
(1.0013448722069 -0.0015198357440213 0)
(1.0016102596637 -0.0016563643734302 0)
(1.0018984908587 -0.0017908184112976 0)
(1.0022093031839 -0.0019232448771097 0)
(1.0025422716746 -0.0020534115076114 0)
(1.0028971756176 -0.0021815766942389 0)
(1.0032734645529 -0.0023071645944381 0)
(1.0036710302827 -0.002430681769977 0)
(1.004089043399 -0.0025508115068415 0)
(1.0045276447858 -0.0026688813808628 0)
(1.0049854374586 -0.0027821796214415 0)
(1.0054631805594 -0.0028941378283112 0)
(1.0059583456973 -0.0029989447906125 0)
(1.0064731413302 -0.0031048338351389 0)
(1.0070027137064 -0.0031988022702941 0)
(1.0075524860509 -0.0033000074296619 0)
(1.0081127284104 -0.0033788835583327 0)
(1.008695888687 -0.003479620417742 0)
(1.0092818539012 -0.0035346774423812 0)
(1.0098985472135 -0.0036456545542765 0)
(1.0000004395556 -0.00012209055489622 0)
(1.0000267457569 -0.00036823891861646 0)
(1.0000774390827 -0.00061213595062006 0)
(1.0001532746696 -0.00085374054549737 0)
(1.0002546107195 -0.0010935267859825 0)
(1.0003813976684 -0.0013315515850522 0)
(1.0005333356611 -0.0015676656491138 0)
(1.0007101184555 -0.0018018381834948 0)
(1.0009114942938 -0.0020340366337099 0)
(1.0011373283452 -0.0022641711664348 0)
(1.0013874374009 -0.0024918645366727 0)
(1.0016616969268 -0.0027168280177626 0)
(1.0019597929169 -0.0029385961950624 0)
(1.0022815730096 -0.0031572081994754 0)
(1.0026265436478 -0.0033722207600787 0)
(1.0029946425022 -0.0035840430912469 0)
(1.0033851084768 -0.0037916936697684 0)
(1.0037981645924 -0.0039960639044657 0)
(1.0042325118777 -0.0041949544735941 0)
(1.0046890414262 -0.004390668308336 0)
(1.0051652958891 -0.0045786099017324 0)
(1.0056636952036 -0.0047646277258206 0)
(1.0061792793653 -0.0049388086544088 0)
(1.0067179314378 -0.0051151516273567 0)
(1.007269299275 -0.0052714949110332 0)
(1.0078469969391 -0.0054404366320246 0)
(1.0084289928933 -0.0055716544057551 0)
(1.0090461235595 -0.0057403308088878 0)
(1.00965073625 -0.0058316088063081 0)
(1.010312549051 -0.0060182164889479 0)
(1.0000004780089 -0.00016835228299556 0)
(1.000027749224 -0.00050749321087782 0)
(1.0000802858943 -0.00084383270872082 0)
(1.000158919918 -0.0011773837243679 0)
(1.0002640611889 -0.0015087344915834 0)
(1.0003957017579 -0.0018378878073028 0)
(1.0005535637171 -0.0021645782381121 0)
(1.0007373730073 -0.0024887522826208 0)
(1.0009468968751 -0.0028104124569326 0)
(1.001182069146 -0.0031295295563604 0)
(1.0014427518379 -0.0034456607938381 0)
(1.0017289493563 -0.0037584467135328 0)
(1.0020403715475 -0.0040671947333602 0)
(1.0023770283404 -0.0043718905448883 0)
(1.0027383328142 -0.0046717954260662 0)
(1.0031244547715 -0.0049674505837222 0)
(1.0035343367251 -0.0052574194441316 0)
(1.0039686824314 -0.0055430680096665 0)
(1.0044255256228 -0.0058212660346669 0)
(1.0049068404401 -0.0060954747304318 0)
(1.0054086556382 -0.0063590172324453 0)
(1.0059357806088 -0.0066204711008191 0)
(1.0064797768479 -0.0068652948278291 0)
(1.0070518040179 -0.0071139429708429 0)
(1.0076336417052 -0.0073339319120567 0)
(1.0082506494625 -0.0075729348252059 0)
(1.0088632074802 -0.0077573128102617 0)
(1.0095284942071 -0.0079970011384922 0)
(1.010159528215 -0.0081240861151119 0)
(1.0108857940149 -0.00839094898235 0)
(1.000000525068 -0.00021372053230979 0)
(1.0000288556498 -0.00064378392599024 0)
(1.0000834237931 -0.0010707073888916 0)
(1.0001651728538 -0.0014946134756975 0)
(1.0002745955182 -0.001916161981723 0)
(1.0004117478882 -0.0023352577256078 0)
(1.0005763836575 -0.0027514844554274 0)
(1.0007682716584 -0.0031647643330112 0)
(1.0009872067428 -0.0035751786076144 0)
(1.0012332169093 -0.003982842790804 0)
(1.0015062291357 -0.0043873209865889 0)
(1.0018064218916 -0.004788223929642 0)
(1.0021335434635 -0.0051845975306064 0)
(1.002487822508 -0.0055763225746809 0)
(1.0028685605779 -0.005962263235696 0)
(1.0032762388322 -0.0063430760703737 0)
(1.0037094275731 -0.0067168046581136 0)
(1.0041694652969 -0.007085405792604 0)
(1.0046535350607 -0.0074447441212257 0)
(1.0051650252968 -0.0077996778089695 0)
(1.0056980213792 -0.0081411765885712 0)
(1.0062604351397 -0.0084809690832713 0)
(1.0068393517636 -0.0087991773659793 0)
(1.0074527581143 -0.0091236503945259 0)
(1.0080723037522 -0.0094100186801997 0)
(1.0087385015622 -0.0097232430550967 0)
(1.0093891041131 -0.0099629271620157 0)
(1.0101151844952 -0.01027883715034 0)
(1.0107792154559 -0.010442313649428 0)
(1.0115873872064 -0.010796868528099 0)
(1.0000005784354 -0.00025824152752505 0)
(1.0000299841876 -0.00077723471663326 0)
(1.0000866142636 -0.0012930173149442 0)
(1.0001715444771 -0.0018058841553079 0)
(1.0002853719558 -0.0023165129657266 0)
(1.0004282388106 -0.0028246557641607 0)
(1.0005999464012 -0.0033297038242213 0)
(1.0008003241635 -0.0038315534964883 0)
(1.0010292080537 -0.0043304156110192 0)
(1.0012867486141 -0.0048266474423551 0)
(1.0015729606476 -0.0053199028639752 0)
(1.001888245086 -0.0058098106413363 0)
(1.0022324084034 -0.0062951166191936 0)
(1.0026059588444 -0.0067755410586765 0)
(1.00300807559 -0.0072494356921443 0)
(1.0034396344798 -0.007717558050912 0)
(1.0038987678176 -0.0081773556989036 0)
(1.0043876046051 -0.0086315156058223 0)
(1.0049023094611 -0.0090748045935449 0)
(1.0054480117539 -0.0095137641399109 0)
(1.0060164516993 -0.0099366809166782 0)
(1.0066193356996 -0.010358947358137 0)
(1.0072383298691 -0.010754497402975 0)
(1.007899732912 -0.011159713433569 0)
(1.0085629278084 -0.01151645600474 0)
(1.0092868113117 -0.011909646034159 0)
(1.0099817596448 -0.012207982989587 0)
(1.0107798516412 -0.01260717343453 0)
(1.0114825107176 -0.012808557397778 0)
(1.0123884928187 -0.013260534662173 0)
(1.0000006361661 -0.00030183349976468 0)
(1.0000310354157 -0.00090758271557201 0)
(1.0000895727424 -0.0015103499750552 0)
(1.000177476199 -0.0021106722184644 0)
(1.0002954675306 -0.0027091877668352 0)
(1.000443796854 -0.0033054367247437 0)
(1.000622330653 -0.0038985735399741 0)
(1.0008309788339 -0.004488469100258 0)
(1.0010696345374 -0.0050755214000661 0)
(1.0013386013127 -0.0056604377952425 0)
(1.001638007279 -0.0062430546102355 0)
(1.0019685263358 -0.0068230743765951 0)
(1.0023300471086 -0.0073989041057112 0)
(1.0027234214325 -0.0079700483207127 0)
(1.0031477026214 -0.0085342236449092 0)
(1.0036042478619 -0.0090922793151638 0)
(1.0040906972911 -0.0096409838436189 0)
(1.0046101268332 -0.01018391415638 0)
(1.0051575336437 -0.010714632730999 0)
(1.0057401067898 -0.011241690234222 0)
(1.0063468741702 -0.011750316053491 0)
(1.0069939981446 -0.012260153253339 0)
(1.0076568557227 -0.012737983012517 0)
(1.0083714586421 -0.013230019687505 0)
(1.0090829442441 -0.013662217751413 0)
(1.0098716091558 -0.014142487159941 0)
(1.0106160764794 -0.014503927437035 0)
(1.0114960067772 -0.01499508304049 0)
(1.0122421474823 -0.015236847343031 0)
(1.0132603836048 -0.015797983544489 0)
(1.0000006958009 -0.00034430050868526 0)
(1.0000319134299 -0.0010342289370032 0)
(1.0000920245467 -0.0017217253100133 0)
(1.0001824269195 -0.0024076430538848 0)
(1.0003039865606 -0.0030925228626791 0)
(1.000457083256 -0.0037756336821296 0)
(1.000641666746 -0.0044558494658436 0)
(1.0008577482121 -0.0051330188919781 0)
(1.0011052956252 -0.0058077903375861 0)
(1.0013847969918 -0.0064813384039016 0)
(1.0016965211148 -0.007153782834115 0)
(1.0020414663389 -0.0078249634316241 0)
(1.0024196310808 -0.0084929121557069 0)
(1.002832276512 -0.0091568661946142 0)
(1.0032783340379 -0.0098137821324891 0)
(1.003759730434 -0.010464598534067 0)
(1.0042735727785 -0.011105318730733 0)
(1.0048240378842 -0.011740586749838 0)
(1.0054048298406 -0.012362644934027 0)
(1.0060255017683 -0.012982410956911 0)
(1.0066720466089 -0.013581650570143 0)
(1.0073657021555 -0.014184903334563 0)
(1.00807477841 -0.014750749815309 0)
(1.0088462878822 -0.01533665805543 0)
(1.0096093534994 -0.015850352076833 0)
(1.0104684038503 -0.016426029056181 0)
(1.0112664036918 -0.016856087016027 0)
(1.0122364913213 -0.017449386329114 0)
(1.0130302032241 -0.01773506885856 0)
(1.0141734971738 -0.018418965860857 0)
(1.0000007556369 -0.00038536392011326 0)
(1.0000325291121 -0.0011563348802309 0)
(1.0000937127156 -0.0019257599553355 0)
(1.0001858892093 -0.0026948855357704 0)
(1.0003100867631 -0.0034640968077033 0)
(1.0004668358459 -0.0042323339450714 0)
(1.0006561877524 -0.004998149059351 0)
(1.0008782758375 -0.005761374913085 0)
(1.0011331611065 -0.0065229776834588 0)
(1.001421546951 -0.0072847223365728 0)
(1.0017438708843 -0.0080471194353841 0)
(1.0021015061724 -0.0088102165346487 0)
(1.0024945912763 -0.0095716394749184 0)
(1.0029248618461 -0.010330312758363 0)
(1.0033911386326 -0.011082311134135 0)
(1.0038960049079 -0.011828668329808 0)
(1.0044360087143 -0.012564538025674 0)
(1.0050165745443 -0.013295822064233 0)
(1.0056300161742 -0.014013324216402 0)
(1.0062885317878 -0.014730709134566 0)
(1.0069748140183 -0.015425857626693 0)
(1.0077157330291 -0.016128890767957 0)
(1.0084718768872 -0.016789096037936 0)
(1.0093023952197 -0.017476695153121 0)
(1.0101188921983 -0.018078749018967 0)
(1.0110522927336 -0.01875920006566 0)
(1.011906600807 -0.019264411300037 0)
(1.0129734551318 -0.019971357825271 0)
(1.0138180144267 -0.02030566002465 0)
(1.0150972552759 -0.02112755498063 0)
(1.0000008132496 -0.00042469474949959 0)
(1.0000328018409 -0.0012729176932168 0)
(1.0000944069483 -0.0021208251882036 0)
(1.0001874081053 -0.0029701324301701 0)
(1.0003130115155 -0.0038210117192288 0)
(1.0004719174404 -0.0046720192558112 0)
(1.0006642963116 -0.0055213474130443 0)
(1.0008904233501 -0.0063688222109275 0)
(1.0011504704242 -0.0072157979976682 0)
(1.0014453848736 -0.0080647560666506 0)
(1.0017758004099 -0.0089167100765956 0)
(1.0021435119785 -0.0097719912089772 0)
(1.0025488299154 -0.0106277962725 0)
(1.0029940255208 -0.011482699177654 0)
(1.0034778275059 -0.012331780533844 0)
(1.0040035568758 -0.013176182700105 0)
(1.0045671939498 -0.014010133545963 0)
(1.0051755431917 -0.014840990448782 0)
(1.0058194663784 -0.015658007906216 0)
(1.00651405013 -0.016477983888778 0)
(1.0072384938246 -0.017274503810759 0)
(1.0080257715666 -0.018083961134732 0)
(1.0088282450978 -0.018845269368825 0)
(1.0097181404594 -0.019642916114895 0)
(1.0105883773919 -0.020340863232869 0)
(1.011598278818 -0.021136287367046 0)
(1.0125103333332 -0.021724153864791 0)
(1.0136786355457 -0.022557385327157 0)
(1.0145764514947 -0.022946276240718 0)
(1.0160003046592 -0.02392277650012 0)
(1.0000008669572 -0.00046194450811521 0)
(1.0000326626449 -0.0013829406451499 0)
(1.0000939087552 -0.0023051936978179 0)
(1.0001865938108 -0.003230961896391 0)
(1.0003121152125 -0.0041601494903024 0)
(1.0004713577039 -0.0050908766353429 0)
(1.0006646257934 -0.0060209421715493 0)
(1.0008923527615 -0.0069501761563867 0)
(1.001154838201 -0.0078803929989468 0)
(1.0014532969646 -0.0088149149898171 0)
(1.0017885859348 -0.0097553751171939 0)
(1.0021629603782 -0.010702466068737 0)
(1.0025769370758 -0.011652945542305 0)
(1.0030333734019 -0.012605003993926 0)
(1.0035309357302 -0.01355263518346 0)
(1.0040737485929 -0.014497104491017 0)
(1.0046572411981 -0.015431660058138 0)
(1.0052897004476 -0.016365302509848 0)
(1.0059605268 -0.017285659300623 0)
(1.0066878720522 -0.018213015383631 0)
(1.0074473597331 -0.019116322916496 0)
(1.0082783938544 -0.020038855161085 0)
(1.0091248294612 -0.020908214190811 0)
(1.0100726159563 -0.021824511142467 0)
(1.0109952595667 -0.022626386463752 0)
(1.0120817887658 -0.023547513171264 0)
(1.0130515450623 -0.024226419840219 0)
(1.0143237658625 -0.025199392331289 0)
(1.015276291299 -0.025650267583661 0)
(1.0168509132024 -0.026799031105198 0)
(1.0000009154164 -0.0004967725226942 0)
(1.0000320627914 -0.001485398425532 0)
(1.0000920704483 -0.002477180808579 0)
(1.0001831468113 -0.0034749904874876 0)
(1.0003068937685 -0.0044784132708243 0)
(1.0004643914242 -0.0054850866695314 0)
(1.0006560911072 -0.0064923881408908 0)
(1.0008825939636 -0.0075001633770283 0)
(1.0011443430974 -0.0085107589825222 0)
(1.0014428342196 -0.0095284565604741 0)
(1.0017791761766 -0.010555627540203 0)
(1.0021561060693 -0.011593400547341 0)
(1.00257439213 -0.012638103255021 0)
(1.0030375008561 -0.013687507222835 0)
(1.0035440948923 -0.014734463579095 0)
(1.0040991222492 -0.01578035582989 0)
(1.0046975392311 -0.016817453789317 0)
(1.0053491307054 -0.017856534201662 0)
(1.0060419563102 -0.018883615036224 0)
(1.0067972204993 -0.019922700041088 0)
(1.0075871801825 -0.020937976430694 0)
(1.0084575752211 -0.021979922442167 0)
(1.0093440900989 -0.022964342556263 0)
(1.0103462114173 -0.024007730001105 0)
(1.0113184312915 -0.024922018907152 0)
(1.0124793332853 -0.025979580848722 0)
(1.0135053743659 -0.026758836765581 0)
(1.0148811433789 -0.02788514889377 0)
(1.0158887936442 -0.028406865588784 0)
(1.0176176002914 -0.029746403864868 0)
(1.0000009567098 -0.00052886413410913 0)
(1.0000309695988 -0.0015793718923914 0)
(1.0000888032906 -0.0026352428710439 0)
(1.0001768841616 -0.0037000207352393 0)
(1.0002970258232 -0.0047729258962563 0)
(1.0004505103642 -0.0058510721949522 0)
(1.0006379479442 -0.0069313935625393 0)
(1.0008601117151 -0.0080137632747391 0)
(1.0011176047413 -0.0091011304633522 0)
(1.0014122048845 -0.01019884604283 0)
(1.0017453044044 -0.011310139472003 0)
(1.0021201189159 -0.012436643581145 0)
(1.0025377295969 -0.013574286247999 0)
(1.0030021888329 -0.014720376667195 0)
(1.0035122686881 -0.015866618647111 0)
(1.0040736646756 -0.017014468375667 0)
(1.0046810730046 -0.01815531032313 0)
(1.0053455858525 -0.019301722351021 0)
(1.0060543432785 -0.020438301234809 0)
(1.0068311342475 -0.021592761980979 0)
(1.0076457619988 -0.022724811376668 0)
(1.0085490976989 -0.023891770060583 0)
(1.0094707795268 -0.024998417278638 0)
(1.0105208433827 -0.026176315179822 0)
(1.0115395133325 -0.027212658174555 0)
(1.0127683420993 -0.028415741266817 0)
(1.0138505747659 -0.029307418735788 0)
(1.0153225770245 -0.030597268363189 0)
(1.0163912796368 -0.031205894340013 0)
(1.0182686968876 -0.03275001669513 0)
(1.0000009897789 -0.00055794749281854 0)
(1.0000293692214 -0.0016640726070828 0)
(1.0000840694953 -0.002778049960699 0)
(1.0001677251786 -0.0039041468660471 0)
(1.0002823611921 -0.0050411728939578 0)
(1.0004294639869 -0.0061856820062063 0)
(1.0006098097379 -0.0073341460206624 0)
(1.0008243436876 -0.0084864783370059 0)
(1.0010738369667 -0.0096462940230665 0)
(1.0013603461132 -0.010820115498195 0)
(1.0016855682335 -0.01201214052424 0)
(1.0020531900892 -0.013224578519258 0)
(1.0024646526407 -0.014452989664235 0)
(1.0029245646247 -0.01569419974085 0)
(1.003431912231 -0.016938767429113 0)
(1.0039930457147 -0.018188194099547 0)
(1.0046026351325 -0.019433096615755 0)
(1.0052728302364 -0.020687835523186 0)
(1.0059903544137 -0.021935883384706 0)
(1.0067809899222 -0.023208504799145 0)
(1.0076131301082 -0.024461418858488 0)
(1.0085414453077 -0.025758267905665 0)
(1.009491757421 -0.026993714435549 0)
(1.0105815267471 -0.028312995323317 0)
(1.0116418753277 -0.029481000900658 0)
(1.0129295959967 -0.030837695619176 0)
(1.0140671977537 -0.03185572782103 0)
(1.0156239695867 -0.033316744250667 0)
(1.016760394744 -0.034032343109045 0)
(1.0187765016981 -0.03579342823734 0)
(1.0000010137185 -0.00058380843512139 0)
(1.0000272654766 -0.0017388886132274 0)
(1.0000778798723 -0.0029045599455689 0)
(1.0001556850342 -0.004085853804361 0)
(1.0002629100061 -0.0052811264847023 0)
(1.0004012429542 -0.0064863408483567 0)
(1.000571626852 -0.0076974912163556 0)
(1.0007751771784 -0.0089145433729579 0)
(1.0010128318498 -0.010141832547091 0)
(1.0012869205095 -0.011387144060677 0)
(1.001599445652 -0.012655740814548 0)
(1.0019545612258 -0.013950483105687 0)
(1.0023540805676 -0.015266593599118 0)
(1.0028031690843 -0.01660042314893 0)
(1.0033010572912 -0.017941376091056 0)
(1.0038547501175 -0.019291033571582 0)
(1.004458955039 -0.020639289836678 0)
(1.0051268687729 -0.022002407272915 0)
(1.0058449185812 -0.023362829269475 0)
(1.0066408364092 -0.024755522251695 0)
(1.0074818135142 -0.026132267698593 0)
(1.0084262248592 -0.0275632090246 0)
(1.0093963910978 -0.028932758475768 0)
(1.0105170526858 -0.030400224429147 0)
(1.0116106654876 -0.03170765457819 0)
(1.0129490355288 -0.033227633174747 0)
(1.0141345706744 -0.034382299987628 0)
(1.0157691452999 -0.036027359457287 0)
(1.0169675407525 -0.036862414049695 0)
(1.0191165039726 -0.038856930042226 0)
(1.0000010280085 -0.00060629922696481 0)
(1.0000246774116 -0.0018034098369193 0)
(1.0000702905478 -0.0030140626232799 0)
(1.0001408688999 -0.0042440824303097 0)
(1.0002388325326 -0.0054913331995453 0)
(1.0003660643311 -0.0067511597645735 0)
(1.000523669368 -0.0080190667545951 0)
(1.0007129266529 -0.0092950823212386 0)
(1.0009349323384 -0.010584307126612 0)
(1.0011922770658 -0.011895866302278 0)
(1.0014872578671 -0.013236172631134 0)
(1.0018244829695 -0.014608804657111 0)
(1.0022061325402 -0.016008683726627 0)
(1.0026379225879 -0.017431702940699 0)
(1.0031193389089 -0.018866123684332 0)
(1.0036580444789 -0.020313646842939 0)
(1.0042488145444 -0.021763506244872 0)
(1.0049059028892 -0.023233976671561 0)
(1.0056155002479 -0.024706578483961 0)
(1.0064072992341 -0.026220129340189 0)
(1.0072473961184 -0.027722538985975 0)
(1.008197871792 -0.029290637360634 0)
(1.0091777297409 -0.030798518584774 0)
(1.0103189650306 -0.032419885921932 0)
(1.0114356642145 -0.03387363524175 0)
(1.0128145746905 -0.035565619602334 0)
(1.0140384679819 -0.036866651179296 0)
(1.0157417066283 -0.038707960887239 0)
(1.0169941108242 -0.039674868535097 0)
(1.0192669582346 -0.041918222858777 0)
(1.0000010322513 -0.00062534191128409 0)
(1.0000216390068 -0.0018574369441742 0)
(1.0000613985386 -0.0031061961575997 0)
(1.0001234618697 -0.0043782550511574 0)
(1.0002104234826 -0.0056709502461946 0)
(1.0003243486788 -0.0069789862497245 0)
(1.0004664947612 -0.0082973685765005 0)
(1.0006382923877 -0.0096261941105115 0)
(1.0008409813036 -0.010971363736225 0)
(1.0010773937178 -0.012343402435613 0)
(1.0013501004969 -0.01374994421169 0)
(1.0016641400463 -0.015195345214161 0)
(1.002022041498 -0.01667426614447 0)
(1.0024300522814 -0.018182166901449 0)
(1.0028879103315 -0.019706192656544 0)
(1.003403928322 -0.02124820994917 0)
(1.0039729679212 -0.02279686503913 0)
(1.0046103355916 -0.024372547757356 0)
(1.0053020289381 -0.025955969684886 0)
(1.0060796960496 -0.027589935805386 0)
(1.0069084265437 -0.029218579039836 0)
(1.0078539930825 -0.030925588817552 0)
(1.0088322620156 -0.032574744175557 0)
(1.0099824281199 -0.034354431718463 0)
(1.0111105486503 -0.035960216898316 0)
(1.0125181412701 -0.037831739478838 0)
(1.0137689370043 -0.039287933761403 0)
(1.0155294692321 -0.04133664208252 0)
(1.0168256393681 -0.042447380627364 0)
(1.0192102197296 -0.044953196571918 0)
(1.0000010267113 -0.00064092721592318 0)
(1.0000181958387 -0.001900977672065 0)
(1.0000513361895 -0.0031809425950907 0)
(1.0001037192862 -0.0044882730043214 0)
(1.0001780925983 -0.0058197468039779 0)
(1.0002766886224 -0.0071694099014704 0)
(1.0004009042047 -0.008531763217089 0)
(1.0005523045954 -0.0099069746628101 0)
(1.0007322532241 -0.011301769444799 0)
(1.0009437958065 -0.012728112384899 0)
(1.0011897479773 -0.014194915722743 0)
(1.0014755421139 -0.015707360461636 0)
(1.0018040284675 -0.01725989297919 0)
(1.0021819530259 -0.018847568476676 0)
(1.0026092938066 -0.020456459975894 0)
(1.0030949875628 -0.022088643948265 0)
(1.0036339907584 -0.023732264096081 0)
(1.0042426390693 -0.025409909081442 0)
(1.0049067663395 -0.027101610140352 0)
(1.0056599465969 -0.028854267162108 0)
(1.0064663328779 -0.030608366787078 0)
(1.0073953450557 -0.03245460810068 0)
(1.0083598909342 -0.034246524519854 0)
(1.0095062586641 -0.036187457983728 0)
(1.0106328902041 -0.037949585864543 0)
(1.0120558122035 -0.040006783833648 0)
(1.0133204320524 -0.041625762310572 0)
(1.0151249276094 -0.043891769097407 0)
(1.0164524489795 -0.045157308621741 0)
(1.0189333635607 -0.047936692344158 0)
(1.0000010115206 -0.00065310905626726 0)
(1.0000144019022 -0.0019342290293671 0)
(1.0000402599885 -0.0032386021754568 0)
(1.0000819463283 -0.0045744874662807 0)
(1.0001423378791 -0.0059380755893611 0)
(1.0002238120699 -0.0073227368010243 0)
(1.0003278899021 -0.0087224646258726 0)
(1.0004562506111 -0.010137494977415 0)
(1.0006103614952 -0.011575394178404 0)
(1.000793444649 -0.013049585342939 0)
(1.0010085267801 -0.014570304982626 0)
(1.0012613798465 -0.016143587522292 0)
(1.0015551436627 -0.017763720781618 0)
(1.001897007983 -0.019425375385158 0)
(1.0022871821394 -0.021113622250364 0)
(1.002735174952 -0.022830772708626 0)
(1.0032360519253 -0.024564581129808 0)
(1.0038071150436 -0.02633987291786 0)
(1.00443407156 -0.028136166066289 0)
(1.0051523351155 -0.030004506123188 0)
(1.005925216513 -0.031881916838653 0)
(1.0068256389968 -0.033866229229354 0)
(1.0077638026362 -0.035800822824481 0)
(1.0088928101708 -0.037904321145323 0)
(1.0100040303439 -0.039825429817136 0)
(1.0114276123652 -0.042072853817566 0)
(1.0126915204127 -0.043860866864315 0)
(1.0145252561044 -0.046352862008724 0)
(1.015869901082 -0.047783303124621 0)
(1.0184290480504 -0.050844694374101 0)
(1.0000009877326 -0.00066199527389972 0)
(1.0000103114688 -0.0019575510758596 0)
(1.0000283318366 -0.0032797460870943 0)
(1.0000584665769 -0.0046376319769675 0)
(1.0001036987756 -0.006026791366594 0)
(1.0001665239517 -0.0074399059969071 0)
(1.0002485701737 -0.0088704610819573 0)
(1.0003515989983 -0.01031874281795 0)
(1.0004771649756 -0.011793163856915 0)
(1.000628615834 -0.013308595043775 0)
(1.0008091641174 -0.014876641532912 0)
(1.001024839677 -0.016504196648895 0)
(1.0012790577282 -0.018185475215495 0)
(1.0015793525522 -0.01991475525066 0)
(1.0019261934151 -0.021676229626501 0)
(1.002329537356 -0.023472398481376 0)
(1.0027846395212 -0.025290817255508 0)
(1.0033095829881 -0.027158455731406 0)
(1.0038901026854 -0.029054607853161 0)
(1.004563151632 -0.031034355013879 0)
(1.005291527371 -0.033031607349293 0)
(1.0061511465217 -0.035151313259479 0)
(1.0070501769023 -0.037226937267066 0)
(1.0081476512539 -0.039492613450858 0)
(1.009229056612 -0.041573545363408 0)
(1.0106370932909 -0.044013885801227 0)
(1.0118850142881 -0.045974954055416 0)
(1.0137294547699 -0.048701053795609 0)
(1.0150800994439 -0.050302503251318 0)
(1.0176858303101 -0.053655462018565 0)
(1.0000009542117 -0.0006677383814373 0)
(1.0000059795598 -0.001971427891503 0)
(1.0000157174499 -0.0033051599989954 0)
(1.000033608817 -0.0046787346090479 0)
(1.0000627179582 -0.0060871168840784 0)
(1.0001056311425 -0.0075223033736659 0)
(1.0001640821937 -0.0089772847936584 0)
(1.000239878702 -0.010452373331126 0)
(1.0003346521334 -0.011956820123828 0)
(1.0004517899075 -0.013506885018893 0)
(1.0005946759108 -0.015115575553775 0)
(1.0007694609484 -0.016790602099069 0)
(1.0009798770089 -0.018526241198006 0)
(1.0012336207452 -0.020316315212325 0)
(1.0015315779213 -0.022144381520119 0)
(1.0018838589517 -0.024012941723962 0)
(1.0022862211513 -0.025909732240741 0)
(1.0027569839495 -0.027863476175581 0)
(1.0032824959631 -0.029853848839434 0)
(1.0039002800198 -0.031939393536423 0)
(1.0045737611296 -0.034051767801467 0)
(1.005380195888 -0.036302428619501 0)
(1.0062278739812 -0.038515822169685 0)
(1.0072789011102 -0.040941312531262 0)
(1.008316822774 -0.043180745173686 0)
(1.0096913136778 -0.045814823708104 0)
(1.0109086066414 -0.047949251293618 0)
(1.0127411324629 -0.050914777866096 0)
(1.0140842626402 -0.0526910628702 0)
(1.0167089741055 -0.056337743680669 0)
(1.0000009073333 -0.00067054732823957 0)
(1.0000014730391 -0.0019764912519906 0)
(1.0000026138147 -0.0033158264435606 0)
(1.000007764235 -0.0046990575927949 0)
(1.0000200198288 -0.0061205423760873 0)
(1.0000420204074 -0.0075716034266743 0)
(1.0000756206615 -0.009044749410405 0)
(1.0001226491571 -0.010540295589094 0)
(1.0001848397375 -0.012068327049608 0)
(1.000265511484 -0.013646415834081 0)
(1.0003682212467 -0.015289015729667 0)
(1.0004990186517 -0.017004562953564 0)
(1.0006620595099 -0.018787562921561 0)
(1.0008648719674 -0.020631209897601 0)
(1.0011091350485 -0.022518786409559 0)
(1.0014045075252 -0.02445237428751 0)
(1.0017480656656 -0.02642058270364 0)
(1.0021570939234 -0.028452999355692 0)
(1.0026201711705 -0.030530982986762 0)
(1.0031728991807 -0.032714935045878 0)
(1.0037824693861 -0.034936501865369 0)
(1.0045230205943 -0.037311119214095 0)
(1.0053086917434 -0.039657480757906 0)
(1.006297182517 -0.042237031277354 0)
(1.0072798962334 -0.044631632763825 0)
(1.0086014216035 -0.047456529610717 0)
(1.0097759455204 -0.049761926357049 0)
(1.0115726226222 -0.052966146308537 0)
(1.0128920187037 -0.054914372197325 0)
(1.0155107216373 -0.058847587213093 0)
(1.0000008468159 -0.00067073680019853 0)
(0.99999693088902 -0.0019737114379916 0)
(0.99998937315803 -0.0033132110065213 0)
(0.9999815233134 -0.0047004180428324 0)
(0.99997645000725 -0.0061291841573903 0)
(0.99997684601961 -0.0075901746181344 0)
(0.99998470802261 -0.0090754666453188 0)
(1.0000018509404 -0.010585329136084 0)
(1.0000301240209 -0.012130578507626 0)
(1.0000726540129 -0.013729973713556 0)
(1.0001331838242 -0.01539949324715 0)
(1.0002174507957 -0.017148285999707 0)
(1.00033021324 -0.018971374545952 0)
(1.0004784430637 -0.020861163917833 0)
(1.000665143625 -0.022801106570279 0)
(1.0008986241088 -0.024792178684931 0)
(1.001178537217 -0.026824755298007 0)
(1.0015190265544 -0.028927735813208 0)
(1.0019138261725 -0.031086379082257 0)
(1.0023920013861 -0.033359828739215 0)
(1.0029310121698 -0.035684501122458 0)
(1.0035922037273 -0.03817372158513 0)
(1.0043091688955 -0.040648891829884 0)
(1.0052156561144 -0.043373563248175 0)
(1.0061382525108 -0.045920819489999 0)
(1.0073788977303 -0.048931393079503 0)
(1.0085132342 -0.051404347699888 0)
(1.0102361420831 -0.054856041514749 0)
(1.0115482723725 -0.056956262521685 0)
(1.0141080634346 -0.061223706770919 0)
(1.0000007555458 -0.00066880586695693 0)
(0.99999257015305 -0.0019647368623284 0)
(0.99997654640072 -0.0032999323509381 0)
(0.99995569018935 -0.0046862528251825 0)
(0.99993300907283 -0.0061173262179125 0)
(0.99991132061099 -0.0075829351836971 0)
(0.9998928062162 -0.0090749534580552 0)
(0.999879397239 -0.010593767973232 0)
(0.99987306184061 -0.012150787802682 0)
(0.99987651677184 -0.013765721837963 0)
(0.99989350053661 -0.015455946187663 0)
(0.99992926401143 -0.017231270676427 0)
(0.99998925484255 -0.019087585262102 0)
(1.0000797975609 -0.021016628034626 0)
(1.0002056433675 -0.023002700980662 0)
(1.000373270776 -0.025045256390679 0)
(1.0005857836951 -0.027137520559764 0)
(1.00085245341 -0.029305874826158 0)
(1.0011745461806 -0.031542294419803 0)
(1.0015700798787 -0.033899986678735 0)
(1.0020336097951 -0.036327846479454 0)
(1.0026023619561 -0.038926013236703 0)
(1.0032472346141 -0.041536349623295 0)
(1.0040493790041 -0.044401442041019 0)
(1.0049137027822 -0.047118929065249 0)
(1.0060326176263 -0.050317068765235 0)
(1.0071448041328 -0.052983058871769 0)
(1.0087231866516 -0.056719439026256 0)
(1.0101071824926 -0.058988428667575 0)
(1.0125290290607 -0.063849227584751 0)
(1.0000005531581 -0.00066592225080355 0)
(0.99998796616156 -0.0019531544629346 0)
(0.999963733599 -0.0032830649098315 0)
(0.99992976078781 -0.0046681255056771 0)
(0.9998893207178 -0.0061018626877477 0)
(0.99984546953694 -0.0075728689145606 0)
(0.99980008329775 -0.009072369222386 0)
(0.99975547812957 -0.01060074082357 0)
(0.99971401019703 -0.012170281590737 0)
(0.99967803840447 -0.013802209138672 0)
(0.99965103775505 -0.015515518131276 0)
(0.99963753914253 -0.017320530325951 0)
(0.99964317991583 -0.019213744560198 0)
(0.99967369617235 -0.021185853961982 0)
(0.99973525130612 -0.023222090078216 0)
(0.99983311510289 -0.02532035156348 0)
(0.99997339253281 -0.027478113648168 0)
(1.0001614384143 -0.029718843364895 0)
(1.0004049883628 -0.032044613953872 0)