/*--------------------------------*- C++ -*----------------------------------*\
| =========                 |                                                 |
| \\      /  F ield         | OpenFOAM: The Open Source CFD Toolbox           |
|  \\    /   O peration     | Version:  2112                                  |
|   \\  /    A nd           | Website:  www.openfoam.com                      |
|    \\/     M anipulation  |                                                 |
\*---------------------------------------------------------------------------*/
FoamFile
{
    version     2.0;
    format      ascii;
    arch        "LSB;label=32;scalar=64";
    class       volScalarField;
    location    "9.1";
    object      p;
}
// * * * * * * * * * * * * * * * * * * * * * * * * * * * * * * * * * * * * * //

dimensions      [0 2 -2 0 0 0 0];

internalField   nonuniform List<scalar> 
22000
(
-0.0036525199051116
-0.0036744197260534
-0.003719674319994
-0.0037894518931528
-0.0038842524894557
-0.0040039989377326
-0.0041483601553769
-0.0043169689164098
-0.0045095085617719
-0.004725709870344
-0.0049653057137594
-0.0052279883532849
-0.0055134000205464
-0.005821134453982
-0.0061507507588662
-0.006501768310737
-0.0068736811142765
-0.0072659371477045
-0.0076779673273621
-0.0081091394657736
-0.0085588246849671
-0.0090262981168146
-0.0095108888768717
-0.010011757790097
-0.010528231947522
-0.011059304282037
-0.011604390078551
-0.01216218494384
-0.012732411147651
-0.013313226680598
-0.0032408410454903
-0.0032641479366913
-0.0033113221145303
-0.0033834075458203
-0.0034809290094157
-0.0036038791525015
-0.0037519831594661
-0.0039249009754495
-0.004122322483775
-0.0043439767864808
-0.0045895962285762
-0.0048588759022999
-0.0051514649185051
-0.0054669633811299
-0.0058049376927574
-0.0061649092550448
-0.0065463765253058
-0.0069487823363761
-0.0073715614912389
-0.0078140674877868
-0.0082756804340051
-0.0087556462141076
-0.0092533155123097
-0.0097677919908248
-0.010298455994538
-0.010844189106182
-0.011404552660699
-0.011978018138129
-0.012564715934385
-0.013162425274142
-0.0024831931092175
-0.0025076920880922
-0.0025571721864374
-0.002632627745002
-0.0027345492259485
-0.0028629248756117
-0.0030174931620735
-0.0031979317119588
-0.0034039452150868
-0.0036352725253641
-0.0038916543794213
-0.0041727936435677
-0.0044783490850269
-0.0048079276066498
-0.0051611045806923
-0.0055374031742959
-0.0059363297359493
-0.0063573195100281
-0.0067998164592908
-0.0072631499037469
-0.0077467169940726
-0.0082497095184409
-0.0087715173134283
-0.0093111344970939
-0.0098680384792398
-0.010440884358023
-0.011029493393028
-0.011631843043606
-0.012248802010329
-0.012877272966383
-0.0014235681587294
-0.0014494675996869
-0.001501766648333
-0.0015814987640212
-0.0016891655106305
-0.001824751372043
-0.0019879930083759
-0.0021785756929482
-0.002396219345791
-0.0026406794878233
-0.0029117141556042
-0.0032090417768753
-0.0035323384640745
-0.0038812244634845
-0.0042552923391365
-0.0046540728115735
-0.0050770892868747
-0.005523771998309
-0.005993584347168
-0.0064858268874402
-0.0069999275813517
-0.007535006341077
-0.0080905159571928
-0.0086652991968188
-0.0092589812788383
-0.0098699015128825
-0.010498273425717
-0.011141391393623
-0.011801230491196
-0.012473480670843
-9.9152012711442e-05
-0.00012670172591739
-0.00018233178873648
-0.00026713255552041
-0.00038163211033803
-0.0005258209076752
-0.00069943915387574
-0.00090218495386842
-0.0011338015924992
-0.0013940720905063
-0.0016827845218516
-0.0019996858545602
-0.0023444834654771
-0.002716824031702
-0.0031163321434722
-0.0035425585344159
-0.0039950597610582
-0.0044732708935219
-0.0049766927356654
-0.0055046006029533
-0.0060564754851547
-0.0066313568086486
-0.0072287932706125
-0.0078474441207669
-0.0084871412324413
-0.0091458275315436
-0.0098242393332391
-0.010518790550245
-0.011232887862559
-0.01196062010794
0.0014579231235348
0.0014285475741299
0.0013692310894165
0.0012788195477462
0.0011567508181579
0.0010030192165347
0.00081786999755178
0.00060157956250002
0.00035436698587995
7.6406417279769e-05
-0.00023213714804278
-0.00057105700969579
-0.00094011143422276
-0.001338993021994
-0.0017673801753435
-0.0022248634120441
-0.002711056178574
-0.0032254161000027
-0.0037675074680531
-0.0043365921559248
-0.0049322347519721
-0.0055533935038495
-0.006199752844223
-0.0068697642940434
-0.0075635298926977
-0.008278519608346
-0.0090161221798234
-0.0097716788844402
-0.010550350219653
-0.011344260658004
0.0032189226114581
0.0031876364983028
0.0031244589060475
0.0030281666441092
0.0028981569135076
0.0027343989863906
0.0025371104890809
0.0023065264313126
0.0020428101316569
0.0017460734565844
0.0014164132020653
0.0010539671541539
0.00065890111459714
0.00023145096824366
-0.00022814405818139
-0.00071954136682849
-0.0012424429395338
-0.001796355064688
-0.0023809405074799
-0.0029954688760789
-0.0036396283062147
-0.0043123056575645
-0.0050133710015444
-0.0057410536840319
-0.0064957982832105
-0.0072745386407959
-0.0080794549808923
-0.0089046409219791
-0.0097573429590658
-0.010627390529254
0.0051572132754985
0.0051240219144808
0.0050569898245878
0.0049548214750059
0.0048168669372478
0.0046430593531076
0.0044335735632137
0.0041885847792443
0.0039081795163646
0.0035923845131911
0.0032412031694365
0.0028546772076408
0.0024328661602142
0.0019759027529726
0.0014839084805363
0.00095712438224737
0.00039572000567167
-0.0001998948446711
-0.00082952611189163
-0.0014924829822945
-0.002188628179261
-0.0029167987166981
-0.0036771112512842
-0.004467573105313
-0.0052890555814418
-0.0061379067843296
-0.0070172475626181
-0.0079197680315465
-0.0088551392579574
-0.0098105999178036
0.007247440803733
0.0072124388517804
0.007141738599416
0.007033971240145
0.0068884335843457
0.0067050103607201
0.0064838166910883
0.0062249476261132
0.0059283896642743
0.0055940589760913
0.0052218371866841
0.0048116389449927
0.0043633826207676
0.0038770608043381
0.0033526358346037
0.0027902055305545
0.0021897633280089
0.0015515909401767
0.00087568506932794
0.00016265378889277
-0.00058760229970395
-0.001373906441248
-0.0021966962994524
-0.00305377291966
-0.0039465315124519
-0.0048707037898336
-0.0058305098418961
-0.0068170983415881
-0.0078429079580312
-0.0088923385672996
0.0094650771469565
0.0094284448498994
0.0093544360640491
0.0092416096157533
0.0090892031156361
0.0088970398456328
0.0086651572799041
0.0083935490060795
0.0080820772794162
0.0077305209092536
0.0073386094878447
0.0069060970195255
0.0064327225973193
0.0059182976044242
0.0053625790307949
0.004765473759248
0.004126744936652
0.003446493361062
0.0027244560330657
0.0019611033085857
0.0011560276196761
0.00031036819734404
-0.00057671796055181
-0.0015028627071743
-0.0024700981343421
-0.0034735328445861
-0.0045186658138479
-0.0055949996799805
-0.0067180805687608
-0.0078692752173589
0.011786235227451
0.011748232396407
0.011671435697903
0.01155433399077
0.011396100027297
0.011196482735292
0.01095542436327
0.010672796206335
0.010348312453282
0.0099815878251199
0.0095721692536875
0.0091196155297034
0.0086234468639057
0.0080832498780898
0.0074985271477918
0.0068689421292985
0.0061939691220827
0.0054734667401599
0.0047068446682294
0.0038943663478414
0.0030352405393627
0.002130495431601
0.0011787974627088
0.00018262022354288
-0.00086081497665911
-0.0019460214106271
-0.0030799643958619
-0.0042504587616275
-0.0054765367388906
-0.0067364356233038
0.014187675195155
0.014148631743233
0.014069710372987
0.013949333296887
0.013786603134676
0.013581182439587
0.013332902374349
0.013041493219872
0.012706499259216
0.012327346014566
0.011903368486264
0.011433896526027
0.010918192517232
0.010355574252305
0.0097452405769477
0.009086555764737
0.0083786459430634
0.0076210572378293
0.0068128057263253
0.0059538575822355
0.0050429727320145
0.004080950680506
0.0030659132475098
0.0020002999175019
0.0008805293633383
-0.00028741813740157
-0.0015120936581103
-0.0027796587030767
-0.004112871781074
-0.0054874306849975
0.016646937096306
0.016607240864804
0.016526976868623
0.016404504067833
0.016238850368917
0.016029582195525
0.015776406757441
0.015478897762636
0.01513641105606
0.014748161102279
0.014313245012629
0.013830732932304
0.013299593614903
0.012718833747624
0.012087301829442
0.011404006015599
0.010667667914408
0.0098774432157619
0.0090318938931714
0.0081305780779514
0.007171754455501
0.0061558363223126
0.0050803656388004
0.0039475478423001
0.0027529744364291
0.0015028798955282
0.00018723491605021
-0.0011790404708643
-0.0026213003054143
-0.0041143308060089
0.019142551644741
0.019102632023259
0.019021896009544
0.018898642049807
0.018731820703559
0.018520896052384
0.018265442179119
0.017964864389842
0.017618315808306
0.017224782693048
0.016783103406581
0.01629206271074
0.015750305170593
0.015156489076952
0.014509070210036
0.01380664857001
0.013047484781777
0.012230274563889
0.011353050982878
0.010414877952502
0.0094134115460497
0.0083485789214714
0.0072172189637526
0.006021148729721
0.0047550864812843
0.003425133901549
0.0020200587815246
0.00055519157267341
-0.00099691547975098
-0.0026099323017294
0.021654290216827
0.021614602926917
0.021534315597482
0.0214116756873
0.021245559316822
0.021035325929709
0.020780410312212
0.020480041038318
0.020133159028549
0.019738511201774
0.019294663015163
0.01880009517749
0.018253104642142
0.017651971550879
0.016994723313308
0.016279507831872
0.015504072561687
0.014666592284596
0.013764495473072
0.012796273403869
0.011758872004686
0.010651637014793
0.0094705617110681
0.0082169596179936
0.0068845002575719
0.0054790402120613
0.0039878703731049
0.0024267669637876
0.00076554155875982
-0.00096834072923873
0.024163379347441
0.024124390690617
0.024045492322342
0.023924896366281
0.02376141223652
0.023554295301643
0.023302838332795
0.023006090211566
0.022662776842749
0.022271401461698
0.021830249544577
0.021337487304918
0.020791049597639
0.020188818448829
0.019528366538502
0.018807356358925
0.018022978517259
0.017172836365554
0.016253684725984
0.015263370875516
0.014198028098136
0.013056324106623
0.011833270007143
0.010529546812819
0.0091376096557118
0.0076629071437072
0.0060910206358458
0.0044379790186816
0.0026704005342777
0.00081650892343928
0.026652694016059
0.02661486539219
0.026538288488014
0.026421158739583
0.026262229555459
0.026060656131783
0.025815590504159
0.025525903987209
0.025190111101649
0.024806475005637
0.024373003185846
0.023887546030052
0.023347671248941
0.022750853755569
0.022094196732517
0.021374856600353
0.020589435748287
0.019734928431527
0.018807359213494
0.017803870737059
0.016719691167926
0.015552719536886
0.014296844243117
0.012951991613238
0.01150920822846
0.0099733931658543
0.0083281703675218
0.0065896219870931
0.004720725550953
0.0027498248653534
0.029106917382254
0.029070692071447
0.028997333892112
0.028885042848962
0.028732530356458
0.028538858511031
0.028303043757183
0.028023786939495
0.027699400944225
0.027327919523843
0.026907082555422
0.026434433386643
0.025907179302421
0.02532239048587
0.024676698855361
0.023966747165655
0.023188534228484
0.022338420694392
0.021411663005395
0.020404650152748
0.019311632942455
0.018129662933786
0.016851372359211
0.015475824829403
0.013992414343144
0.012405376665258
0.010696046371267
0.0088804582312458
0.0069175134194639
0.0048350436658323
0.03151264235803
0.031478435233891
0.031409135578819
0.031302969430797
0.031158622377269
0.030975075489793
0.030751220442337
0.030485599505832
0.030176338306948
0.029821257127057
0.02941784633161
0.028963359881053
0.028454662850685
0.027888435287326
0.027260851440884
0.026568045593327
0.025805416841452
0.02496868128618
0.024052313259525
0.023051909628594
0.02196070065317
0.020774820345457
0.019485548084072
0.018090998034644
0.01657866342015
0.014952028237059
0.013189538381646
0.011307261282116
0.009259064710513
0.0070728860711944
0.033858407267825
0.033826600785414
0.033762129098789
0.033663263652109
0.033528681513808
0.033357297911945
0.033147895329163
0.032898874668729
0.032608194613584
0.032273483622902
0.031892008343909
0.031460758433164
0.03097628589199
0.030434903851285
0.029832358204911
0.02916429082612
0.0284255276987
0.027611140189869
0.026714839512868
0.025731399216664
0.024653029874553
0.023474866645137
0.022186811645459
0.020785904084781
0.019257687057877
0.017604702427235
0.015802206704019
0.013865596490175
0.011743038497265
0.0094616962477428
0.036134664161505
0.036105608483721
0.036046660320407
0.035956148120849
0.035832763167326
0.035675377020278
0.035482678472048
0.035252940275958
0.03498397524936
0.034673247898794
0.034317838206882
0.033914505624314
0.033459531964639
0.032948895170626
0.032377960331116
0.031741898180749
0.03103501629887
0.030251740388551
0.02938508361754
0.028428954735269
0.027374623025338
0.026216106693482
0.024942008555878
0.023548055767369
0.022017967455386
0.02035313426011
0.018525915594794
0.016550429274297
0.014367431665525
0.011998761966113
0.038333699409227
0.038307685870295
0.038254864271629
0.038173619335573
0.038062682731053
0.037920909946671
0.037746914078585
0.037538852154352
0.037294409544912
0.037010910907696
0.036685289395423
0.036314108521585
0.03589343202215
0.035418941182884
0.034885692576047
0.03428841343255
0.033620988537305
0.032877185377391
0.032049457396837
0.031130753179078
0.030111628396724
0.028984735337169
0.027737737671731
0.026364496654627
0.024847299154157
0.023185569074795
0.021349416438277
0.019353021640652
0.017129109163196
0.014692910529995
0.04044963447516
0.040426749598794
0.040380388675554
0.040309060252971
0.040211573942514
0.040086750106982
0.039933098222771
0.039748661870417
0.039531043740352
0.039277476720073
0.038984796400768
0.038649397514108
0.038267163043663
0.03783349536601
0.037343204712539
0.036790588879744
0.036169227103772
0.035472192828277
0.034691591306801
0.033819217267593
0.032845355213251
0.031760732338219
0.030553065468447
0.029212977548516
0.027723256541687
0.026077914959202
0.024247098760129
0.022240065672045
0.019989204616029
0.017512238286944
0.042478737112096
0.042458758201796
0.042418529007271
0.042357026400448
0.042273306207545
0.042166155255124
0.042033850680637
0.041874213123562
0.041684742758372
0.041462648657753
0.041204728516972
0.040907282407181
0.040566091504547
0.040176327698588
0.039732582546629
0.039228696910432
0.038657962288758
0.038012674664707
0.03728469547376
0.036464400195462
0.035542202090254
0.034506074679315
0.033345200411592
0.032044497497702
0.030591941423394
0.028968832075986
0.027156857623668
0.025134237852533
0.022849966275403
0.020295295316661
0.044419883973703
0.044403038068571
0.044368484836606
0.044316322165239
0.044245768416205
0.044156148887898
0.044045523776104
0.043911515151198
0.043751456627572
0.04356233519689
0.043340778274635
0.043083039695663
0.042784960545759
0.042441727051374
0.042047929398137
0.041597108392717
0.04108228387146
0.040495023333892
0.03982689932734
0.039066929531494
0.03820568475598
0.037228352932354
0.036125991432628
0.034877007399514
0.033477324758209
0.03189150315214
0.030128407163052
0.028116928799731
0.025857479117769
0.023108147467239
-0.013868436572988
-0.014395701011668
-0.014930148241344
-0.015470627188931
-0.016016171510487
-0.016565982206053
-0.017119320123823
-0.017675459588086
-0.018233668930068
-0.018793189716808
-0.019353236362231
-0.019913017755003
-0.020471754892203
-0.021028682361493
-0.021583045108871
-0.022134099533892
-0.022681116556737
-0.023223383823644
-0.023760206987916
-0.024290910100391
-0.024814835541455
-0.025331340957222
-0.025839793866557
-0.02633956455954
-0.026830033252935
-0.027310765537253
-0.027781374016411
-0.028241356360217
-0.028690176604084
-0.029127335070546
-0.029552389531381
-0.029964940504941
-0.030364617377633
-0.030751068610807
-0.0311239665138
-0.031482999128953
-0.031827882874316
-0.03215834378089
-0.03247414644336
-0.032775049847521
-0.033060873035219
-0.03333139450384
-0.033586503946333
-0.03382597333799
-0.034049802422454
-0.03425769905896
-0.034449873244747
-0.034625854757206
-0.03478635172711
-0.034930552766339
-0.013730724216911
-0.014267317821679
-0.014812033963116
-0.015362786755039
-0.01591833309422
-0.016477995339322
-0.017041228520053
-0.017607472071259
-0.018176097303531
-0.018746371831697
-0.019317491910866
-0.019888650837251
-0.020459069311891
-0.021027981989493
-0.021594621686392
-0.022158220309662
-0.022718016332324
-0.023273258388301
-0.023823206979374
-0.024367137228782
-0.024904343464054
-0.025434146566174
-0.025955905345116
-0.026469032417992
-0.026972995639343
-0.027467098931913
-0.027950638131044
-0.028423077811892
-0.028883963100532
-0.029332852371348
-0.029769306136171
-0.030192897707361
-0.030603230726198
-0.03099993488895
-0.031382676806247
-0.031751142075542
-0.032105058656652
-0.03244415979972
-0.032768238061609
-0.033077064207119
-0.033370506944237
-0.033648353097407
-0.033910571685018
-0.034156916229568
-0.034387511968356
-0.034601966852878
-0.034800678395135
-0.034982817918692
-0.035149220448636
-0.035297640449169
-0.013472349981744
-0.014032857153272
-0.014603680033384
-0.01518060442515
-0.01576157706151
-0.016345992651506
-0.016933585320325
-0.017524036186859
-0.018116843746645
-0.018711262638915
-0.019306401772452
-0.019901385632167
-0.020495410595453
-0.021087701639226
-0.021677472678871
-0.022263928644775
-0.022846280558048
-0.023423751390376
-0.023995577509085
-0.024561012366625
-0.02511933126745
-0.025669832716913
-0.026211835465457
-0.026744669363275
-0.027267665811979
-0.027780221847727
-0.028281785858802
-0.028771828649925
-0.0292498549489
-0.029715399279283
-0.030168027895946
-0.030607333247117
-0.031032946480919
-0.03144452556861
-0.031841776120157
-0.032224419553763
-0.032592236518868
-0.032945000759354
-0.033282574902099
-0.033604767344679
-0.033911540193503
-0.034202698929601
-0.034478346365796
-0.034738202633283
-0.034982604346872
-0.035210986987982
-0.035424088517923
-0.035620463953951
-0.035801235560941
-0.035961567504227
-0.013108153170012
-0.013705938122355
-0.014316997499547
-0.014933732449049
-0.01555286011587
-0.016173947647081
-0.016797207535324
-0.017422708287918
-0.018050146053221
-0.018678767716097
-0.019307572777018
-0.019935609162167
-0.020562066451457
-0.021186187835535
-0.021807193183513
-0.022424281174717
-0.023036654867523
-0.023643529665423
-0.02424413297424
-0.024837707726029
-0.025423518120351
-0.026000852096691
-0.026569023544443
-0.02712737693374
-0.027675296119092
-0.028212194606171
-0.028737516728313
-0.029250744489418
-0.029751400417163
-0.030239043043053
-0.03071327260642
-0.031173718051962
-0.031620056070714
-0.032051990814949
-0.03246928766364
-0.032871719149402
-0.033259136956005
-0.033631366004101
-0.033988359640483
-0.034329971035641
-0.034656283003375
-0.034967117674045
-0.035262753280068
-0.035542852870114
-0.035808033905436
-0.036057474113373
-0.036292356581921
-0.03651031643734
-0.036712767936422
-0.036890974268543
-0.012646139124878
-0.013292974921388
-0.013956899643908
-0.014625655715426
-0.015294328461534
-0.015962796281249
-0.016631975848855
-0.017302468618217
-0.017974224856529
-0.018646474905726
-0.019318075309325
-0.0199879791202
-0.020655375291003
-0.021319540207542
-0.021979710681282
-0.02263508549071
-0.023284865132842
-0.023928263887975
-0.024564507960207
-0.025192840303114
-0.025812529337604
-0.02642287253569
-0.027023198724069
-0.027612869537768
-0.028191282290877
-0.028757872096994
-0.029312114466162
-0.029853522234138
-0.030381654104884
-0.030896107785888
-0.031396530985833
-0.031882604553583
-0.032354072113644
-0.03281070320343
-0.033252341637647
-0.03367882740836
-0.034090107028388
-0.034486077210293
-0.034866810383768
-0.035232221953785
-0.035582549358729
-0.035917644222165
-0.03623800616545
-0.036543237670435
-0.036834305058768
-0.037110075762712
-0.037372280296314
-0.037617420292394
-0.037847260382899
-0.038048165061037
-0.012090856762867
-0.01279770160743
-0.013526499574067
-0.01425892756527
-0.014987989893332
-0.015714024853433
-0.016438895747506
-0.017163881228282
-0.017889227768372
-0.018614126265903
-0.01933724744092
-0.020057424191548
-0.020773845668904
-0.021485832982234
-0.0221926478455
-0.022893492251481
-0.023587566667641
-0.024274087661941
-0.024952284899877
-0.025621407404758
-0.02628073427482
-0.02692957814294
-0.027567286728121
-0.028193242371879
-0.028806867585788
-0.029407631821055
-0.029995051182775
-0.030568684183866
-0.031128146011612
-0.031673092391541
-0.032203235579224
-0.032718325888793
-0.033218194683158
-0.033702696149785
-0.034171774694183
-0.034625360439473
-0.035063522681598
-0.035486255849987
-0.035893782397796
-0.036286107004127
-0.036663659094276
-0.037026346761766
-0.037374938983074
-0.037708996478443
-0.038029901100127
-0.03833620188304
-0.038630272275546
-0.038907356594739
-0.039169617904222
-0.03939774105767
-0.011444619003279
-0.012222040117775
-0.013027490844428
-0.013834988354702
-0.014634963581395
-0.015428400820355
-0.016218393655797
-0.017007053427231
-0.017794955671858
-0.018581217548612
-0.019364275143576
-0.020142814925582
-0.020916027252198
-0.021683288480542
-0.022443891648449
-0.023197043186255
-0.023941943293589
-0.024677811560533
-0.025403882602046
-0.026119413420243
-0.026823696364756
-0.027516062399252
-0.028195882743483
-0.028862568004803
-0.029515577590606
-0.030154424927959
-0.030778678183438
-0.031387951994808
-0.031981925914705
-0.032560324582197
-0.033122944706277
-0.03366962647729
-0.034200305974035
-0.034714937693981
-0.035213588307673
-0.035696304688309
-0.036163306811869
-0.036614715737769
-0.037050934368347
-0.037472092343
-0.037878848195988
-0.038271206931366
-0.038650251746673
-0.039015545341
-0.039368944918384
-0.039708715252499
-0.040037945815689
-0.040350578600219
-0.040649172684189
-0.040908141702604
-0.010707435212929
-0.011565827520861
-0.012459737115395
-0.013353679938654
-0.014234970917251
-0.015105481671595
-0.015969876859084
-0.016831272274911
-0.017690592051905
-0.018546829136171
-0.019398129179013
-0.020243004269535
-0.02108064619418
-0.021910496401014
-0.022731883623006
-0.023544016546786
-0.024346091264963
-0.025137326758315
-0.025916960283183
-0.026684255935928
-0.027438519940958
-0.028179104292576
-0.028905406697541
-0.029616868830157
-0.030312989222368
-0.030993325419798
-0.031657500556784
-0.032305199718723
-0.032936184988606
-0.033550258362544
-0.03414730620207
-0.034727269373157
-0.035290204994626
-0.035836188159002
-0.036365429337427
-0.036878118467941
-0.037374649783875
-0.037855305258352
-0.038320697119276
-0.038771125682161
-0.03920751231241
-0.039630016556218
-0.040040076103099
-0.040437325513224
-0.040824143119928
-0.04119859106694
-0.041564518425204
-0.041914632277801
-0.042251877625046
-0.042544187655271
-0.0098771937671541
-0.010826959422571
-0.011821408174062
-0.01281339207008
-0.013786487177853
-0.014743757393339
-0.015691857855191
-0.016635107964678
-0.017574784250243
-0.01850968155798
-0.019437588108022
-0.020356813621946
-0.02126655311596
-0.02216632074268
-0.023055481598695
-0.023933240741827
-0.024798782215177
-0.025651317560236
-0.026490081255188
-0.027314339950845
-0.028123410307651
-0.028916661946277
-0.029693517145653
-0.030453448596665
-0.031195997281175
-0.031920771435212
-0.032627453703293
-0.033315789436947
-0.033985613479033
-0.034636817337662
-0.035269400756944
-0.035883421404098
-0.036479063565552
-0.03705653778268
-0.037616213706641
-0.038158452122085
-0.038683839581348
-0.039192857547824
-0.039686350096875
-0.040164843045245
-0.040629547328336
-0.041080852259695
-0.041520580373215
-0.041948541142833
-0.042367663978319
-0.042775950382701
-0.043178023458135
-0.04356556187327
-0.04394185637965
-0.044268567723933
-0.0089499944177187
-0.010001654515074
-0.011109134242768
-0.012211117956011
-0.013286752612783
-0.014340656991994
-0.015381957014162
-0.016416393970418
-0.017445585468672
-0.018468034112366
-0.019481096415236
-0.020482853232234
-0.0214725061359
-0.022449649121342
-0.023413681039702
-0.02436379287288
-0.025299144353442
-0.02621892836068
-0.027122367383222
-0.02800872241162
-0.028877314757903
-0.029727525367282
-0.030558794588082
-0.031370621075321
-0.032162577401117
-0.032934315173014
-0.03368558055617
-0.034416190019558
-0.035126051588614
-0.035815141540866
-0.036483569615697
-0.037131519303337
-0.037759306124857
-0.03836729317268
-0.0389560151936
-0.039526031449867
-0.040078128697844
-0.040613030238929
-0.04113182394538
-0.041635322758552
-0.042125042392557
-0.042601690961893
-0.043067491228122
-0.043522556437426
-0.043970371513775
-0.044409083662386
-0.04484405875677
-0.045266312701286
-0.04567941299149
-0.046039521807905
-0.0079203408553173
-0.0090847910668782
-0.010318419839079
-0.011542762159895
-0.012731859336163
-0.013892457380895
-0.015036744545394
-0.016172065575133
-0.017300293705082
-0.018419513979228
-0.019526582394566
-0.020619334565725
-0.021696983270602
-0.022759204341656
-0.023805423061489
-0.024834802168264
-0.025846460822435
-0.026839558356439
-0.027813292415773
-0.028766907036443
-0.029699715637114
-0.030611098428059
-0.031500502899307
-0.032367441759198
-0.033211517001893
-0.034032419215077
-0.034829940922754
-0.035603953548315
-0.036354436451497
-0.037081461143097
-0.037785237761707
-0.038466074962204
-0.039124410569159
-0.039760779381443
-0.04037587122129
-0.040970469621429
-0.041545553276531
-0.042102129729033
-0.042641528555889
-0.043164912146489
-0.043674104036923
-0.044170225356285
-0.044655895864602
-0.045131687053035
-0.045601608708984
-0.04606422114721
-0.046525536461655
-0.046976450031443
-0.047420692380719
-0.047810400270421
-0.0067811858102194
-0.0080697383053511
-0.0094435070378861
-0.010803273237214
-0.0121170982012
-0.013394622763492
-0.014651948058361
-0.015898256417687
-0.0171354884772
-0.018361107551572
-0.01957140207511
-0.020763971768602
-0.021938051100622
-0.023093391295072
-0.024229427379798
-0.025345272985644
-0.026439985624241
-0.027512671585726
-0.028562486378267
-0.029588641291031
-0.030590427079922
-0.031567207598932
-0.032518421075668
-0.033443579005365
-0.034342289189835
-0.035214261240641
-0.036059326602025
-0.036877419256798
-0.037668573611126
-0.038432937872505
-0.039170793218177
-0.0398825800481
-0.040568837671136
-0.041230287971384
-0.041867745363468
-0.042482244900239
-0.043074927639004
-0.043647124718252
-0.044200387135581
-0.044736278010393
-0.045256920284821
-0.045763929338473
-0.046260305602911
-0.046747240477521
-0.047229198099181
-0.047705497006039
-0.048182605449088
-0.048652070647094
-0.049117588629158
-0.049529599132135
-0.0055245523457279
-0.0069492387444673
-0.0084776783297204
-0.0099863093094282
-0.011436513038006
-0.012841604249217
-0.014222436025298
-0.015590293626017
-0.016946994574132
-0.018289129597213
-0.01961232431613
-0.020913962513049
-0.022193327349169
-0.023450237597429
-0.024684110641348
-0.025893982183124
-0.027078821895528
-0.028237659555815
-0.029369587780262
-0.030473764293666
-0.031549434884067
-0.03259592502504
-0.033612639942274
-0.034599069916767
-0.035554811740549
-0.036479576805608
-0.037373204487322
-0.038235667236778
-0.039067025457499
-0.039867502304061
-0.040637422326042
-0.041377354700667
-0.042087896856162
-0.042769965987975
-0.043424450565245
-0.044052659381668
-0.044655841343053
-0.045235683314208
-0.045793914463971
-0.046332530152718
-0.046853934833321
-0.047360288241247
-0.047854945991685
-0.04833986078283
-0.048819835064664
-0.04929533282831
-0.049772939588532
-0.050245897995186
-0.050717539087982
-0.051140046735956
-0.0041415970672398
-0.0057150712263517
-0.0074137067483539
-0.0090850208464467
-0.010683404090818
-0.012227041809554
-0.013742343664765
-0.015242816742975
-0.016729935007939
-0.018199187542837
-0.019645443889446
-0.021065884631108
-0.022459866936673
-0.023827267981408
-0.025167452399023
-0.026479338479511
-0.027761775048203
-0.029013688507274
-0.030234083069463
-0.031422037537001
-0.032576725486611
-0.033697404500027
-0.034783418907465
-0.035834211198631
-0.036849330901719
-0.037828473714289
-0.03877145628567
-0.039678258380042
-0.040548922560334
-0.04138373455282
-0.042183026463322
-0.04294748018147
-0.043677701838544
-0.044374793193693
-0.0450396603523
-0.045673885877018
-0.046278751027778
-0.046856310753273
-0.047408397180237
-0.047937445785966
-0.048446100890606
-0.048937082069349
-0.049414046457811
-0.049879846767579
-0.050339480356033
-0.050794984775313
-0.051252509675232
-0.051708287046516
-0.05216461660249
-0.052580185206867
-0.0026246193440202
-0.0043590133418016
-0.0062435648878296
-0.0080917249407447
-0.0098503748116951
-0.011543868642163
-0.013205066483848
-0.014849762409623
-0.01647877948431
-0.018086254989544
-0.019666231440398
-0.021215714120743
-0.022734158248017
-0.024221480663625
-0.02567694721556
-0.027099311469868
-0.02848726255339
-0.029839592300373
-0.031155187423538
-0.03243301681801
-0.033672146639951
-0.034871731785353
-0.036031017602598
-0.037149364408048
-0.038226239105049
-0.039261289168307
-0.040254264133054
-0.041205118454265
-0.042113835060603
-0.042980728807098
-0.043806094329902
-0.044590683879464
-0.045335073975323
-0.046040502998126
-0.046707857117964
-0.047338947675867
-0.047935020769157
-0.04849847390745
-0.049031128722459
-0.04953583047324
-0.050015360942199
-0.050472972995664
-0.050912430859015
-0.051337757345719
-0.051753895621586
-0.052164953976046
-0.05257591609862
-0.052987725441439
-0.053400657118095
-0.053785971601753
-0.00096587010684478
-0.0028731201250352
-0.0049594909407589
-0.0069987589931038
-0.0089298265263697
-0.010784699278595
-0.012603632773458
-0.014404661962415
-0.016187539436287
-0.017944791989212
-0.019669608358101
-0.02135886747926
-0.023012136418712
-0.024629336545639
-0.026209575974094
-0.02775138560559
-0.029253250957256
-0.030713795204436
-0.032131752895859
-0.033505944818844
-0.034835287468125
-0.036118791958358
-0.037355560540367
-0.038544830256969
-0.039685938298083
-0.040778431721655
-0.041821952953238
-0.042816396523213
-0.04376164184903
-0.044657967706998
-0.045505588353772
-0.046305254606133
-0.047057489147101
-0.047763561165031
-0.048424326297892
-0.049041712109856
-0.049616896801189
-0.05015256794049
-0.050650415972223
-0.051113636495866
-0.051545033146172
-0.051948219222989
-0.052326531334067
-0.052685933146378
-0.053030686065464
-0.053367491352035