/*--------------------------------*- C++ -*----------------------------------*\
| =========                 |                                                 |
| \\      /  F ield         | OpenFOAM: The Open Source CFD Toolbox           |
|  \\    /   O peration     | Version:  2112                                  |
|   \\  /    A nd           | Website:  www.openfoam.com                      |
|    \\/     M anipulation  |                                                 |
\*---------------------------------------------------------------------------*/
FoamFile
{
    version     2.0;
    format      ascii;
    arch        "LSB;label=32;scalar=64";
    class       volScalarField;
    location    "19.8";
    object      p;
}
// * * * * * * * * * * * * * * * * * * * * * * * * * * * * * * * * * * * * * //

dimensions      [0 2 -2 0 0 0 0];

internalField   nonuniform List<scalar> 
22000
(
0.0024101110457649
0.0023881756406565
0.0023426648986739
0.0022725718668431
0.0021774004913884
0.0020572072217026
0.0019123356674448
0.0017431709921702
0.0015500438740743
0.0013332412773306
0.0010930509604167
0.000829799533166
0.0005438614815978
0.00023565973770804
-9.434671280506e-05
-0.00044565616664357
-0.00081773902218421
-0.0012100157408046
-0.001621888260551
-0.0020526910994686
-0.0025017633639487
-0.0029683407608037
-0.00345171854724
-0.0039510084660876
-0.0044655026931265
-0.0049941305003292
-0.0055362736437614
-0.0060905562367326
-0.0066566654263996
-0.0072327025753356
0.0028231864474645
0.0027998390436747
0.0027523763670123
0.0026799202123769
0.0025819468352833
0.002458441648629
0.0023096940587156
0.0021360626553712
0.001937868309568
0.0017153935442391
0.001468920461031
0.0011987692270513
0.00090530667925305
0.00058895036192059
0.00025015310870588
-0.00011058491684851
-0.00049273887000998
-0.00089572585817946
-0.001318953136317
-0.0017617437170205
-0.0022234455909448
-0.0027032679319379
-0.0032005265087928
-0.0037142790505763
-0.0042438709094553
-0.0047881286205063
-0.0053465675490775
-0.0059176298611093
-0.0065013167214609
-0.0070954716141666
0.0035836498720736
0.003559081640498
0.0035092464980171
0.0034333069061446
0.0033307748094968
0.0032016411175602
0.0030461788539969
0.0028647254457874
0.0026575838159166
0.0024250230950926
0.0021673131964512
0.0018847633779598
0.0015777278590112
0.0012466142023691
0.00089186283182263
0.0005139684143611
0.00011344487009816
-0.00030912143934855
-0.00075314859369623
-0.0012179404872405
-0.0017028615540693
-0.0022070729156068
-0.002729926881231
-0.0032703767977221
-0.0038278601695738
-0.0044009874953298
-0.0049895027874013
-0.0055914267694057
-0.0062073185451863
-0.0068343788088016
0.0046479898999197
0.0046219833034564
0.0045692336616936
0.0044888654870901
0.0043803838613436
0.0042437838435643
0.0040793356869922
0.0038873634416256
0.0036681492668328
0.0034219399252073
0.0031489821894402
0.0028495644193144
0.0025240182884669
0.0021727325479313
0.0017961247348923
0.0013946756391028
0.00096887689915226
0.00051931259208314
4.6541768426679e-05
-0.00044871985983209
-0.0009658677286708
-0.0015040021568493
-0.0020625356566853
-0.0026402809430395
-0.0032368168766137
-0.0038504581751597
-0.0044812959677711
-0.0051267812186375
-0.0057883203651058
-0.0064622605961182
0.0059792942137345
0.0059516019673203
0.0058954277728698
0.0058098405626436
0.0056943222757763
0.0055488609443416
0.0053737169887734
0.0051691944982193
0.0049355456330661
0.0046729826277582
0.004381714563191
0.0040619937162259
0.003714112890613
0.0033384261388356
0.002935310437309
0.0025052168038107
0.0020485956563316
0.0015660148033405
0.0010579900909886
0.00052524803288321
-3.1661515976884e-05
-0.00061177594911817
-0.0012146012635157
-0.0018387854334168
-0.0024841064740027
-0.0031485144206049
-0.003832564223781
-0.0045329821703312
-0.0052522686241508
-0.0059856505926605
0.0075455998397467
0.0075160582476503
0.0074561233271569
0.0073648014544413
0.0072415447073232
0.0070863243742519
0.0068993784984389
0.0066809769852424
0.0064313262632082
0.0061505869339846
0.005838911386347
0.0054964955773417
0.0051235712128951
0.004720435037787
0.0042873986419639
0.0038248596434172
0.0033332003283597
0.0028129495266088
0.0022645507672252
0.0016887228425558
0.0010859280759789
0.00045718374599615
-0.0001971510049991
-0.00087554511477439
-0.0015780390910557
-0.0023021579150065
-0.0030490364823988
-0.0038145316449243
-0.0046024846473008
-0.0054067710242858
0.0093181411369408
0.0092866852018394
0.0092228516439491
0.0091255791727975
0.0089942840976383
0.0088289105925274
0.0086296595006776
0.0083967488854823
0.0081303198259499
0.0078304601449444
0.0074972422606704
0.0071307807084848
0.0067312183353347
0.0062987656069716
0.0058336369443873
0.0053361451525619
0.0048065692804634
0.0042453673190809
0.0036528721161188
0.0030297657136862
0.0023763800822328
0.001693767277768
0.00098209976190595
0.00024308863196645
-0.0005236417164354
-0.0013151466612352
-0.0021332668601814
-0.0029728683715661
-0.0038393913389277
-0.0047251739994646
0.011270038472714
0.011236701271339
0.011169029467446
0.011065890889672
0.010926660059487
0.01075124219696
0.010539784132804
0.010292432178545
0.010009239882303
0.0096901980678117
0.0093352722306
0.0089444659510308
0.0085178003613748
0.0080553647587035
0.0075572380755469
0.0070236093614598
0.006454611227482
0.0058505896272683
0.005211718696328
0.0045386034394002
0.0038313916303472
0.0030911366910135
0.0023177609298305
0.0015131407288138
0.00067648021220953
-0.00018878123357884
-0.0010853253851576
-0.002006930965961
-0.0029609016618428
-0.00393789725792
0.013375490188278
0.013340400625596
0.013269145353002
0.01316051961754
0.013013849978081
0.012828989777378
0.012606013674568
0.012344974928794
0.012045815819143
0.011708403903297
0.011332568120217
0.010918168099894
0.010465066326855
0.0099731911456751
0.0094424421428471
0.0088728389746376
0.0082643172403072
0.0076170607500707
0.0069310275993713
0.0062066940211285
0.0054439586021334
0.0046438285400848
0.0038058997226966
0.0029321813056756
0.0020213602368496
0.0010773741945936
9.6554777066728e-05
-0.00091372228818771
-0.0019628960092475
-0.0030398661396898
0.015609355350789
0.015572733069843
0.015498334070265
0.015384880127859
0.015231643256251
0.015038411444078
0.014805168873818
0.014531854494815
0.014218275349678
0.013864148622147
0.013469135669633
0.013032917184774
0.012555157602316
0.012035581230389
0.011473860491073
0.010869794774117
0.010223066144133
0.0095336384165246
0.0088011880780335
0.0080260000717142
0.0072076482818835
0.0063470314676441
0.0054433309085086
0.0044986372424741
0.0035110102699092
0.002484864376356
0.001415389760542
0.00031114710886678
-0.00083971876190731
-0.0020243388484125
0.01794701776945
0.017909165124496
0.017832231805345
0.017714864413412
0.017556273196202
0.017356168138302
0.017114426257058
0.016830852419379
0.01650509547291
0.016136695655075
0.01572511602822
0.015269823319376
0.014770244096535
0.014225854265382
0.013636049335491
0.013000354316148
0.012318137341118
0.011589078529007
0.010812500925096
0.0099884262359941
0.009116019167083
0.0081959938163062
0.0072270169691256
0.0062111886814572
0.0051458203276055
0.0040357523766936
0.0028748702945406
0.0016729084734665
0.00041530837302784
-0.00088337268682926
0.020364450867136
0.020325739265352
0.02024702670832
0.020126880598552
0.019964442384324
0.019759333817683
0.019511310830082
0.019220026683907
0.018884951066323
0.018505422805927
0.018080678321903
0.017609937514845
0.017092351104045
0.01652710324225
0.015913263309761
0.015250027083192
0.014536387102989
0.013771672692071
0.012954777948356
0.012085382220277
0.011162150386267
0.010185522941917
0.0091535446847212
0.0080682314920235
0.0069260160817601
0.0057320749756718
0.004478821189016
0.0031770903489117
0.0018093406085218
0.00039166690761672
0.022838418234282
0.022799271579454
0.022719644381109
0.022598023835724
0.02243348023178
0.022225539928199
0.021973825366408
0.021677822518452
0.021336803984164
0.020949886719854
0.020516056544588
0.020034257921641
0.019503331876906
0.018922131009975
0.018289352669486
0.017603810646607
0.016864061971636
0.016069017489279
0.015217066298127
0.014307461345001
0.013338274365038
0.012309571749215
0.011218667360382
0.01006737604986
0.0088511339229265
0.0075753143102525
0.0062307202618137
0.0048290844739067
0.0033496190206125
0.0018095812941918
0.025346733075052
0.025307615974664
0.025228011820863
0.025106337868436
0.0249415967539
0.024733214834409
0.024480671745404
0.024183274598801
0.0238400857421
0.023449984551259
0.023011687727981
0.022523841502744
0.021984949547198
0.021393499129552
0.020747775879539
0.020046163981972
0.019286730160476
0.018467901706775
0.01758748990598
0.016644234819251
0.015635523644573
0.014560933988935
0.01341694812065
0.012205017134782
0.010919517062305
0.00956574311306
0.0081330213778771
0.0066333934437267
0.0050432139076289
0.0033794086267799
0.027868503599286
0.027829901016564
0.027751301866448
0.027631067728547
0.027468140092463
0.02726184339769
0.027011508493856
0.026716256966824
0.026374934475692
0.02598617514021
0.025548415561163
0.025059987669745
0.024519037778509
0.023923662052468
0.02327170348068
0.022561077011266
0.021789312984045
0.020954296127726
0.020053194977818
0.019084151000811
0.018043784127839
0.016931054819837
0.015741533882658
0.014476085646284
0.013128030300879
0.01170212069011
0.010186467782796
0.0085926141145975
0.0068947985011758
0.0051092597081612
0.030384388412507
0.030346790898501
0.030270192112963
0.030152914641193
0.029993848045888
0.029792216322711
0.029547200060264
0.029257734199893
0.028922447544848
0.028539728078901
0.028107730066108
0.027624465353456
0.02708771286265
0.026495161102821
0.025844190238105
0.025132216592961
0.024356199889864
0.023513433022737
0.022600388254028
0.021614531087331
0.020551636377258
0.019409934942666
0.018183971439622
0.016873895700336
0.015471751504687
0.013981755767496
0.012390234322507
0.010708654899673
0.0089080444754629
0.0070038414775747
0.032876819319726
0.03284070773188
0.032767087100808
0.032654259962849
0.032501075276943
0.032306661154887
0.032070051029616
0.031789997850813
0.031464920214509
0.031092966666638
0.030672015103255
0.030199760322283
0.029673615387418
0.029090857119182
0.028448395210924
0.027743129908113
0.026971430363003
0.026129961068315
0.025214459286346
0.024221651359029
0.023146398201061
0.021986111789521
0.020734180720439
0.019389954287828
0.017943941522155
0.016399801842894
0.014741651411845
0.012980848155891
0.011084670559557
0.0090671709184508
0.035330165364149
0.035295996906653
0.035226286237931
0.035119336954577
0.034973970886417
0.034789227590973
0.034564000464346
0.034296870422235
0.033986058896403
0.033629489158351
0.033224777375811
0.032769313831197
0.032260157553659
0.031694181098522
0.031067830968828
0.030377488035758
0.029618927040253
0.028788161680095
0.027880175634851
0.026890904416695
0.025814253614064
0.024646727438006
0.023380474897604
0.022013925104651
0.020535864271601
0.018949288984663
0.017235671942188
0.01540635365194
0.013423813863542
0.011301040282176
0.037730832330634
0.037699029934402
0.037634091868749
0.037534345162045
0.037398599478961
0.037225816477097
0.03701476150873
0.036763858437191
0.03647114959807
0.036134353033933
0.035750845424047
0.035317734597911
0.034831748177368
0.034289373702536
0.033686614169589
0.033019343213487
0.032282754791427
0.03147220618937
0.030581930228216
0.029607033739222
0.028540459135538
0.027377706201841
0.026109677154478
0.02473368914847
0.023236809687575
0.021621027679462
0.019865076652429
0.017979857806769
0.015922307535839
0.013704946249651
0.040067290778973
0.040038240497178
0.039978857669837
0.039887511349354
0.03976301392853
0.039604263948868
0.039409916161211
0.039178257989172
0.038907177049877
0.038594212224455
0.038236528582568
0.03783098013444
0.03737399469602
0.036861705466126
0.036289703898768
0.035653383518116
0.034947385711718
0.034166429570939
0.033304015291213
0.032354416066703
0.031309614093282
0.030164045680563
0.028907367128215
0.027535607070537
0.026034211813265
0.024403734841378
0.02262043940444
0.020693444988833
0.018574440685561
0.016272264072643
0.042330029448904
0.042304083931541
0.042250962807854
0.042169083748649
0.042057274647787
0.041914390429386
0.0417389948636
0.041529259495
0.041282946887623
0.04099745288628
0.040669769731531
0.040296533044913
0.039873909956705
0.039397716415824
0.038863176084685
0.038265238927588
0.037598039636558
0.03685569089517
0.036031004586241
0.035117443771826
0.03410605836696
0.032990224874581
0.03175832287896
0.030405035613699
0.028914116157846
0.027284555153937
0.025490390710957
0.023538571985739
0.021374565776016
0.019000242458628
0.044511455990807
0.044488918031113
0.044442679195145
0.044371199146652
0.044273334344633
0.04414791759813
0.043993438819308
0.043807969927791
0.043589174929771
0.043334339768722
0.043040329894214
0.042703609313263
0.042320139693101
0.041885463659241
0.041394496303439
0.040841781000517
0.04022101900829
0.03952573617369
0.038748150704556
0.037880907246117
0.036914256303139
0.03584047280259
0.034646790578488
0.033326470707581
0.031861421064951
0.030249177419832
0.028460654015773
0.026502687755057
0.024313001965516
0.021887371807142
0.046605841679979
0.046586871073667
0.046547922866624
0.046487526978328
0.046404610229396
0.046297984811544
0.046166057242892
0.046006814983134
0.045817867649123
0.045596419837115
0.045339235751064
0.045042635795077
0.044702432181793
0.044313940232805
0.043871837278523
0.043370295170795
0.04280269203892
0.042161950338392
0.041439872504661
0.040628149818061
0.03971659069158
0.03869596090292
0.037553074506097
0.036278868577996
0.034854854589739
0.033275049613336
0.031508485216383
0.029559246180197
0.027359179300146
0.024905418133904
0.048609477018602
0.048594005504411
0.04856226208889
0.048513049425442
0.048445483038017
0.048358351419162
0.048249931255118
0.048118141455025
0.047960565385929
0.047774371755951
0.047556278073081
0.047302496346891
0.047008720115415
0.046670000664476
0.046280812832543
0.04583497316488
0.045325634119427
0.044745061098611
0.044084842376462
0.043335460710082
0.042486746164593
0.041527018786553
0.040444033686182
0.039223992302347
0.037852399472307
0.036313301880238
0.034584511815823
0.032646011792738
0.030441549967459
0.027934872368473
0.050521214969379
0.050509444616624
0.050484517451635
0.050446194506783
0.050393785446572
0.050325997458652
0.050241174805935
0.050137272940732
0.050011786943621
0.049861815390289
0.049684072583618
0.049474747661238
0.049229505028207
0.048943339976643
0.048610640422726
0.048224844867575
0.047778857830924
0.047264285885011
0.04667251414319
0.045992650852832
0.045214724727408
0.044324403452951
0.043311582081842
0.042155897350565
0.040849968006345
0.03936250340905
0.037695418743192
0.03578568740243
0.03362134573362
0.030960040352121
-0.0077828037745587
-0.0083046735367724
-0.0088330976981086
-0.0093669552468554
-0.0099052129465423
-0.010446988540627
-0.010991498967483
-0.011537983504758
-0.012085659632001
-0.012633716226958
-0.013181324778276
-0.013727652101258
-0.014271868246244
-0.014813150614412
-0.015350686618293
-0.015883676218999
-0.01641133336876
-0.016932887019743
-0.017447583015617
-0.017954686346854
-0.018453482092168
-0.018943273554375
-0.019423374785022
-0.019893098773589
-0.020351756803027
-0.020798868930096
-0.021234133483269
-0.02165705542846
-0.022067096910901
-0.022463773575048
-0.022846673865927
-0.023215446003163
-0.023569784696776
-0.023909421296448
-0.024234125673523
-0.024543700774618
-0.02483799081163
-0.025116868833302
-0.025380255163626
-0.025628087488298
-0.025860363369482
-0.026077072341648
-0.02627829549912
-0.026464052074426
-0.026634529641827
-0.02678973599384
-0.026930030501191
-0.027055337251819
-0.027166380791409
-0.027262972818093
-0.0076597422129559
-0.0081916621927086
-0.0087310128346206
-0.0092759194490498
-0.0098249655767057
-0.010377307896618
-0.0109323792517
-0.011489604448089
-0.012048289978788
-0.012607641135413
-0.013166816627938
-0.013724967238172
-0.014281249394315
-0.014834826191562
-0.015384866298582
-0.015930543370912
-0.016471036163347
-0.017005530329296
-0.01753322242514
-0.018053324832381
-0.018565071433266
-0.019067725833366
-0.019560597698637
-0.020043067565618
-0.020514602786754
-0.020974510381478
-0.02142195839822
-0.021856395259146
-0.022277382170012
-0.022684501306527
-0.023077348234285
-0.023455544665277
-0.023818754354456
-0.024166682475462
-0.024499083014663
-0.024815746999665
-0.025116519781808
-0.025401273531376
-0.025669946409329
-0.025922480120374
-0.0261589102748
-0.026379226506317
-0.026583578339754
-0.026771960173756
-0.026944676200745
-0.027101631505237
-0.027243371680664
-0.02736947469784
-0.027480825374443
-0.0275759225778
-0.0074272577272721
-0.0079841953523156
-0.0085507022131484
-0.0091231002857504
-0.0096989266662147
-0.010277246219143
-0.010857826029366
-0.011440388122588
-0.012024348173799
-0.01260888293425
-0.01319307742407
-0.013776018353846
-0.014356819153762
-0.014934612838194
-0.015508541641912
-0.016077750866595
-0.016641386654183
-0.017198598941486
-0.017748548880816
-0.018290416456255
-0.018823405506102
-0.019346745737586
-0.019859690686904
-0.020361508525088
-0.020851465954524
-0.021328891611927
-0.021793213218606
-0.022243868925363
-0.02268034252434
-0.023102164840533
-0.023508911191577
-0.023900197210142
-0.024275688860918
-0.024635095557428
-0.024978186455735
-0.025304767497965
-0.02561471456624
-0.025907920066307
-0.026184369787632
-0.026444023438772
-0.02668698996358
-0.026913259465732
-0.027123099407505
-0.027316452364488
-0.027493826144979
-0.027654935086739
-0.02780067891397
-0.027930029627606
-0.028044270587393
-0.02813957091073
-0.0070974073788707
-0.0076932808007051
-0.0083016411275041
-0.0089158559293517
-0.0095318829376958
-0.010148729422685
-0.010766732287035
-0.011386090183796
-0.012006390967967
-0.012626775269763
-0.013246233453271
-0.013863781870228
-0.014478501145214
-0.015089513032385
-0.015695954089548
-0.01629696038084
-0.016891661563741
-0.017479184541222
-0.018058663879095
-0.018629251334465
-0.019190120596292
-0.019740469088464
-0.020279521337192
-0.020806535757329
-0.021320816557605
-0.021821707029839
-0.022308574701956
-0.022780841670507
-0.02323798011514
-0.023679508438327
-0.024104998039622
-0.024514067372642
-0.024906394761191
-0.025281702245638
-0.025639782054245
-0.02598045667753
-0.026303637363007
-0.026609233838178
-0.02689728691045
-0.027167765832472
-0.027420867362239
-0.027656562478529
-0.027875267608669
-0.028076828996372
-0.028262022954451
-0.028430262477562
-0.028582916707376
-0.028718019900105
-0.028837306116325
-0.028933312532198
-0.006675072078503
-0.0073222005936508
-0.0079856536074174
-0.0086546323357627
-0.0093229889448741
-0.0099897485323276
-0.010656085184781
-0.011322859683731
-0.011989883815626
-0.012656239657552
-0.013320789906901
-0.013982465256071
-0.014640315842405
-0.015293461893109
-0.015941043705349
-0.016582194760068
-0.017216032272955
-0.01784166289806
-0.018458198302986
-0.01906476864864
-0.019660528686254
-0.020244659651254
-0.020816372382131
-0.021374910997199
-0.021919556194471
-0.022449629932979
-0.022964497001402
-0.023463567446341
-0.023946304316452
-0.024412221132172
-0.024860891701203
-0.025291939317238
-0.02570505604198
-0.026099975733634
-0.02647651564562
-0.026834514405836
-0.027173924473845
-0.027494672154672
-0.027796864045239
-0.028080475016228
-0.028345808900571
-0.028592804898179
-0.028822063601511
-0.029033300152301
-0.029227625102707
-0.029404058614709
-0.029564559730466
-0.029705965819859
-0.029830602681818
-0.029926395502289
-0.0061614061822367
-0.0068713659261682
-0.0076026600703053
-0.0083389205725073
-0.0090713098789498
-0.0097989663003133
-0.010524195370565
-0.011248709503389
-0.01197258222759
-0.012694796781517
-0.013414042533168
-0.014129142707835
-0.014839115348796
-0.015543085162699
-0.016240201587087
-0.016929597763723
-0.017610378448083
-0.018281629474351
-0.018942439606582
-0.019591918160158
-0.020229201446339
-0.020853452914472
-0.021463865126078
-0.022059662917951
-0.022640108073381
-0.023204510723377
-0.023752228408378
-0.024282663899794
-0.024795276703583
-0.025289579031985
-0.025765150277227
-0.026221620181605
-0.026658697282186
-0.027076128959945
-0.027473763346553
-0.027851458133188
-0.028209216192082
-0.028546982760776
-0.028864944354257
-0.029163081119984
-0.02944182646114
-0.029701080487089
-0.029941665877453
-0.030163142297327
-0.030367022066899
-0.030551865018017
-0.030720338809856
-0.03086787551488
-0.030997514682306
-0.031091684215208
-0.0055551990450419
-0.0063392297764724
-0.0071510046713877
-0.0079669283723309
-0.0087748335579658
-0.0095741160083047
-0.010368560482031
-0.011160938425971
-0.011951613599714
-0.0127394154083
-0.01352280552989
-0.014300475760367
-0.015071411976131
-0.015834750786497
-0.01658965540244
-0.017335258908508
-0.018070651211587
-0.018794894120767
-0.019507050863167
-0.020206207919692
-0.020891481327642
-0.021562014976145
-0.022216982239833
-0.022855589760142
-0.023477083831014
-0.02408076167583
-0.02466596917351
-0.025232100408429
-0.025778611259872
-0.026305011886874
-0.026810887020019
-0.027295871575676
-0.02775969167961
-0.028202107683442
-0.028623001526479
-0.029022249467711
-0.029399911027224
-0.029755949219285
-0.030090641343102
-0.030403969716813
-0.030696516227757
-0.030968134002264
-0.031219900492054
-0.031451200610446
-0.031664005681229
-0.031856363855006
-0.032031745282661
-0.032184007750153
-0.032316977416591
-0.032406814264358
-0.004852760074049
-0.0057219538086415
-0.0066269801555913
-0.0075350329096177
-0.0084299067061732
-0.0093114661276192
-0.010185392309111
-0.011055745316499
-0.011923196270767
-0.012786347352824
-0.013643368132613
-0.014492794037024
-0.015333580245953
-0.016164882997808
-0.016985882594463
-0.01779570925246
-0.018593432034454
-0.019378082538526
-0.020148693163585
-0.020904323268394
-0.021644064924729
-0.022367038815285
-0.023072395413519
-0.023759318936517
-0.024427034964541
-0.025074822510131
-0.0257020113177
-0.026307981437201
-0.026892180545818
-0.027454111521723
-0.027993360541521
-0.028509562918763
-0.029002459626744
-0.029471819279977
-0.029917557296808
-0.030339563947455
-0.030737957786146
-0.031112715047283
-0.031464211319873
-0.031792426230287
-0.032098104858929
-0.032381046747943
-0.032642609535702
-0.032881991767407
-0.033101664467413
-0.033299136943688
-0.033478742832058
-0.033632672405085
-0.033765582152114
-0.033846863334433
-0.0040482718178761
-0.0050137329258443
-0.0060251218831815
-0.0070380430586861
-0.0080314696194277
-0.0090060314116157
-0.0099698060268611
-0.010928394607882
-0.011882774782947
-0.012831225529912
-0.013771548952171
-0.014702098017842
-0.015621801573688
-0.016529844572004
-0.017425425373062
-0.018307664741048
-0.019175601238846
-0.02002822678341
-0.020864535157901
-0.021683551916173
-0.022484338582653
-0.023265985565449
-0.024027612855686
-0.024768374062541
-0.025487465591689
-0.026184140096835
-0.026857703275582
-0.027507512129361
-0.028132997563955
-0.028733646314272
-0.029309038558283
-0.029858800819239
-0.030382682248986
-0.030880450274496
-0.031352048349327
-0.031797371581743
-0.032216595601051
-0.032609701253353
-0.032977164234829
-0.033318953629176
-0.033635984387745
-0.03392799705924
-0.034196641033248
-0.034440928659644
-0.034663845352029
-0.034862371108695
-0.035041714936953
-0.035192408721773
-0.035319907391068
-0.035386640328037
-0.0031341838821041
-0.0042071458261751
-0.0053385053546157
-0.0064694339669774
-0.007573228503042
-0.0086516907439759
-0.0097158883757556
-0.010773234334815
-0.011824987130326
-0.012868979896286
-0.013902561508994
-0.014923878942925
-0.015931842978099
-0.016925676725608
-0.017904595327878
-0.018867699395035
-0.019813983271216
-0.020742386926828
-0.021651855233559
-0.022541370541484
-0.023409954309007
-0.024256656306817
-0.025080555079641
-0.025880762129629
-0.026656433188301
-0.027406782616298
-0.02813107990432
-0.028828646104605
-0.029498882910676
-0.030141246528361
-0.030755297986991
-0.031340640283054
-0.031897018223012
-0.03242418275542
-0.03292209418156
-0.033390636809184
-0.033830033235994
-0.034240254326914
-0.034621867966759
-0.034974821015934
-0.035300191146393
-0.035597655764929
-0.035869145245363
-0.036113499387322
-0.036334192344356
-0.036527730442712
-0.036700135331211
-0.036840417897215
-0.036954697862661
-0.036998681657858
-0.002101634754546
-0.0032935283449882
-0.0045590525200322
-0.0058215784209942
-0.0070478193178101
-0.0082412969919116
-0.0094167656445309
-0.010583729507186
-0.011743664760606
-0.012893805504443
-0.014030953537932
-0.015153030596882
-0.016258943760834
-0.017347965149299
-0.018419321226663
-0.019472076475364
-0.020505163187546
-0.021517453948364
-0.022507832163589
-0.0234752252384
-0.024418601972823
-0.025336957656615
-0.026229314796983
-0.027094727474994
-0.027932295224504
-0.028741177859166
-0.02952059225008
-0.030269805480979
-0.030988172144713
-0.031675098654267
-0.032330108098565
-0.032952757965357
-0.033542768822487
-0.034099852701843
-0.034623966527723
-0.035114961162031
-0.03557308543914
-0.035998278932038
-0.036391179082054
-0.03675169555526
-0.037081040191899
-0.037378826995509
-0.037647221238633
-0.037884925792604
-0.038095816563492
-0.038276044101357
-0.03843227227023
-0.0385523012192
-0.038642637886174
-0.038653066171439
-0.00094089831266012
-0.002263362263651
-0.0036778662290289
-0.005086028934113
-0.0064470429984152
-0.0077668739456486
-0.0090647663245392
-0.010352588719739
-0.011631923028846
-0.012899218292199
-0.014150630719988
-0.015383847024382
-0.016597790859391
-0.017791792585775
-0.018965079765385
-0.02011665896823
-0.021245377904333
-0.022350023726222
-0.023429403391823
-0.02448237463409
-0.025507837773558
-0.026504716191656
-0.027471957954103
-0.028408540283252
-0.029313486435273
-0.030185880618961
-0.031024865724553
-0.031829632138046
-0.032599464066357
-0.033333691952995
-0.034031774442094
-0.034693195493798
-0.035317622683372
-0.035904699050955
-0.036454346248148
-0.036966351203861
-0.037440951845851
-0.037878029847738
-0.03827824720387
-0.038641460845228
-0.038968955001111
-0.039260290190563
-0.03951776893952
-0.039740025139053
-0.039931161618743
-0.040087175883558
-0.040215051419028
-0.040301908585861
-0.040354160265686
-0.040317182112377
0.00035800198914246
-0.0011068188758153
-0.002685616644207
-0.0042537799670264
-0.0057620734176898
-0.0072198080756898
-0.0086516009336731
-0.010071925517474
-0.011482296429052
-0.012878160518505
-0.014254932947773
-0.015610069371784
-0.016942538536977
-0.018251736179932
-0.019536871872135
-0.020796865054656
-0.022030452353499
-0.02323631473574
-0.024413165420313
-0.025559774713006
-0.026674954529689
-0.027757534716433
-0.028806366635566
-0.029820327603995
-0.030798340469813
-0.031739387831813
-0.032642510451538
-0.033506793036908
-0.034331420287391
-0.035115616234685
-0.035858739391751
-0.036560164105839
-0.0372194650209
-0.037836180425158
-0.038410147694714
-0.038941053590082
-0.039429064271352
-0.039873975168289
-0.040276392210537
-0.040636111324005
-0.040954374161343
-0.041230723347181
-0.041467421151318
-0.041663154935247
-0.041821952153527
-0.04193997540204
-0.042023994633308
-0.042061265406455
-0.042057346569329
-0.041955622578229
0.0018050038186475
0.00018552928548191
-0.0015732962975663
-0.0033158273216629
-0.0049838312088572
-0.0065911263817848
-0.0081685917705933
-0.0097334458802621
-0.011286886007738
-0.012823116165875
-0.014336724939313
-0.015824958074725
-0.017286863279802
-0.018721901951622
-0.020129237007142
-0.021507663510165
-0.022855776014968
-0.024172127143578
-0.025455316924917
-0.026704006862895
-0.027916896167608
-0.029092694684741
-0.030230129822571
-0.031327951341682
-0.03238495384453
-0.033399989726585
-0.034371964532359
-0.035299822443111
-0.036182609126361
-0.037019403781583
-0.037809419201697
-0.038551882240283
-0.039246220222834
-0.039891825443206
-0.040488379829709
-0.041035432203628
-0.041532982596243
-0.041980716844114
-0.042379050468889
-0.042727730626891
-0.043027755490388
-0.043278737522414
-0.0434825917212
-0.043638279883317
-0.043749260975377
-0.043812359133488
-0.043833291837026
-0.043800623102169
-0.043717933076402
-0.043530122787016
0.0034099347797637
0.0016230603877552
-0.00033219152015575
-0.0022635036856399
-0.0041034267129967
-0.005871896496163
-0.007607022658603
-0.0093287675607501
-0.011037639445608
-0.012726336427483
-0.014388568689737
-0.016021421719158
-0.017624059036818
-0.019195994443684
-0.020736299205581
-0.022243597687192
-0.023716308298583
-0.025152830765573
-0.02655162958799
-0.027911232406194
-0.02923019674925
-0.030507082170141
-0.031740460203488
-0.032928919738771
-0.03407109260982
-0.035165665903038
-0.036211373077715
-0.037206985296311
-0.038151361453403
-0.039043386520299
-0.039882066487414
-0.040666440049155
-0.04139571796918
-0.042069102784638
-0.042686023910415
-0.043245855581516
-0.043748301142004
-0.044192920581574
-0.044579743150039
-0.044908507799381
-0.045179653747947
-0.045393028099808
-0.045549693895671
-0.045649255373201
-0.045693827601638
-0.045681683528192
-0.045616167240664
-0.045488913699338
-0.045299906655114
-0.045000269281022
0.0051800641321987
0.0032141463787689
0.0010462634986599
-0.0010882348671987
-0.0031121519229313
-0.0050533227310075
-0.0069582263945742
-0.0088494997985128
-0.010726451212293
-0.012579965918795
-0.014402863026833
-0.016192158790548
-0.01794717206898
-0.019667434768339
-0.021351864369426
-0.022998861054584
-0.024606631726837
-0.026173398136428
-0.027697463017297
-0.029177189299652
-0.030610958070175
-0.031997145041646
-0.033334130785595
-0.034620308867626
-0.035854108141695
-0.03703400321328
-0.03815851024028
-0.039226193990453
-0.040235672500136
-0.041185581676058
-0.042074650995572
-0.042901683265022
-0.043665584874903
-0.044365315842762
-0.04499993868543
-0.045568608290559
-0.04607057543153
-0.046505245710527
-0.046872031969698
-0.047170705709751
-0.047400753994124
-0.047562488241909
-0.04765542114941
-0.047680294311356
-0.047636781463228
-0.047525606105852
-0.047345646431401
-0.04709466214127
-0.046766550923064
-0.046324751998835
0.0071212746276994
0.0049650792933887