/*--------------------------------*- C++ -*----------------------------------*\
| =========                 |                                                 |
| \\      /  F ield         | OpenFOAM: The Open Source CFD Toolbox           |
|  \\    /   O peration     | Version:  2112                                  |
|   \\  /    A nd           | Website:  www.openfoam.com                      |
|    \\/     M anipulation  |                                                 |
\*---------------------------------------------------------------------------*/
FoamFile
{
    version     2.0;
    format      ascii;
    arch        "LSB;label=32;scalar=64";
    class       volVectorField;
    location    "19.8";
    object      U;
}
// * * * * * * * * * * * * * * * * * * * * * * * * * * * * * * * * * * * * * //

dimensions      [0 1 -1 0 0 0 0];

internalField   nonuniform List<vector> 
22000
(
(1.0000010076034 -2.5732138712486e-05 0)
(1.0000265347808 -7.6922356858429e-05 0)
(1.0000755884857 -0.000128026295617 0)
(1.0001492378322 -0.00017903888968161 0)
(1.0002480016853 -0.00022987765397173 0)
(1.0003718202597 -0.00028045211355077 0)
(1.000520371361 -0.00033067641929869 0)
(1.0006933101014 -0.00038048432417663 0)
(1.0008903462372 -0.00042981768036948 0)
(1.001111251594 -0.00047865468733464 0)
(1.001355806215 -0.00052695943481746 0)
(1.0016237864168 -0.00057472507791498 0)
(1.0019149147393 -0.0006218690075247 0)
(1.002228903505 -0.00066837131525791 0)
(1.002565381053 -0.00071407176317165 0)
(1.0029239945363 -0.00075900300957336 0)
(1.0033042647828 -0.00080291492826992 0)
(1.0037058093213 -0.00084601548977007 0)
(1.0041280373612 -0.00088785557393632 0)
(1.0045706052628 -0.0009290095073378 0)
(1.0050327705416 -0.0009685181873868 0)
(1.0055143212834 -0.0010077395476985 0)
(1.0060142370832 -0.0010445189738879 0)
(1.0065326059917 -0.0010819961456347 0)
(1.0070678692465 -0.0011153092961608 0)
(1.0076207655065 -0.0011516797344291 0)
(1.0081886996452 -0.001180094388044 0)
(1.0087737804637 -0.0012170604045162 0)
(1.0093714284435 -0.0012375545847976 0)
(1.0099865279307 -0.0012791530943796 0)
(1.0000004761761 -7.588357565411e-05 0)
(1.0000261695136 -0.00022691816114904 0)
(1.0000757927389 -0.00037783407372276 0)
(1.0001503116833 -0.00052858542955673 0)
(1.0002502811363 -0.00067889584771201 0)
(1.0003757129462 -0.0008284797775294 0)
(1.0005263305622 -0.00097707362767626 0)
(1.0007018113719 -0.0011244765679764 0)
(1.0009018623445 -0.0012705168094218 0)
(1.001126264331 -0.001415130011325 0)
(1.0013747888907 -0.0015582087018546 0)
(1.0016472345463 -0.0016997246698751 0)
(1.001943298989 -0.0018394277017156 0)
(1.0022627320113 -0.0019772479064512 0)
(1.0026050996846 -0.0021127129701957 0)
(1.0029701297311 -0.0022459089667748 0)
(1.0033572118911 -0.0023761111371742 0)
(1.0037661466597 -0.0025039143248806 0)
(1.0041960671426 -0.0026280268718326 0)
(1.0046470333515 -0.0027500957222828 0)
(1.0051177067163 -0.0028673673466729 0)
(1.0056087533584 -0.0029837266516721 0)
(1.006117856101 -0.0030929988197572 0)
(1.0066470089543 -0.0032041509055769 0)
(1.0071918348908 -0.0033032914154191 0)
(1.007757218772 -0.0034110132942559 0)
(1.0083344714925 -0.0034959460339185 0)
(1.008934691337 -0.0036050605592225 0)
(1.0095402532806 -0.0036672798813045 0)
(1.0101752723723 -0.0037892556719405 0)
(1.0000005334714 -0.00012449238909552 0)
(1.000027501863 -0.00037206701042127 0)
(1.0000793631579 -0.00061946766581595 0)
(1.0001570015329 -0.00086667835714571 0)
(1.0002609147728 -0.0011132508324582 0)
(1.0003911058157 -0.001358710450968 0)
(1.0005473039893 -0.0016026112423143 0)
(1.0007292012352 -0.0018446179555284 0)
(1.000936502469 -0.0020844556240143 0)
(1.0011690069613 -0.0023220294918159 0)
(1.001426476261 -0.0025571595616917 0)
(1.0017087403503 -0.0027897846788485 0)
(1.0020154565572 -0.0030194687014791 0)
(1.0023464264722 -0.0032460855236232 0)
(1.0027011183039 -0.0034688476564957 0)
(1.0030793805508 -0.003687912852492 0)
(1.0034804008489 -0.0039020846128555 0)
(1.0039042655553 -0.0041123771909946 0)
(1.0043496741969 -0.0043166390828987 0)
(1.0048173316195 -0.0045176409501474 0)
(1.0053049374703 -0.0047107670940941 0)
(1.0058145932392 -0.0049025323047238 0)
(1.0063418272785 -0.0050825666636345 0)
(1.0068918344863 -0.0052659112577458 0)
(1.0074554104116 -0.0054292347773022 0)
(1.0080446123786 -0.0056071143067924 0)
(1.008639967465 -0.0057468586026311 0)
(1.0092686323206 -0.0059273925472111 0)
(1.0098891085468 -0.0060292827699325 0)
(1.0105611543614 -0.006231827861327 0)
(1.0000005906009 -0.00017282481829046 0)
(1.0000290564561 -0.0005157832822366 0)
(1.0000836381233 -0.00085819626729399 0)
(1.0001652005131 -0.0012002570563608 0)
(1.000274214192 -0.0015414449584361 0)
(1.0004106673461 -0.0018811441154748 0)
(1.0005742755519 -0.0022187359121489 0)
(1.0007647352599 -0.0025537578410369 0)
(1.0009817445729 -0.0028858514522909 0)
(1.0012251316077 -0.0032149147738718 0)
(1.0014946490711 -0.0035406976160861 0)
(1.0017901745598 -0.0038630937198201 0)
(1.0021113117078 -0.0041814551444739 0)
(1.0024579362997 -0.0044955953050973 0)
(1.0028293829518 -0.0048044051972233 0)
(1.003225672372 -0.0051081481767527 0)
(1.0036457146596 -0.0054051530699037 0)
(1.0040900015458 -0.0056969126982765 0)
(1.004556631401 -0.0059803720504245 0)
(1.0050472192233 -0.006259521858456 0)
(1.0055581217392 -0.0065277472221647 0)
(1.0060934610414 -0.0067943896910541 0)
(1.0066457442 -0.0070445523976856 0)
(1.0072246744301 -0.0072998090154015 0)
(1.0078142594851 -0.0075266330992633 0)
(1.0084366723117 -0.0077746817429929 0)
(1.0090572556249 -0.007968216881857 0)
(1.0097258501982 -0.0082207034211053 0)
(1.010367315619 -0.0083603479939172 0)
(1.0110917785478 -0.0086451505916843 0)
(1.0000006617675 -0.00022119523493313 0)
(1.0000308703793 -0.00065899039142115 0)
(1.0000886052634 -0.0010955645279133 0)
(1.000174715864 -0.0015314902928964 0)
(1.0002896534237 -0.0019662736251265 0)
(1.0004333993748 -0.0023992128334396 0)
(1.000605657519 -0.0028295316111011 0)
(1.0008061321633 -0.0032566513181571 0)
(1.0010345160815 -0.0036801545717085 0)
(1.001290679196 -0.0040999607802789 0)
(1.0015743707673 -0.0045157530352536 0)
(1.0018855363125 -0.0049273662647323 0)
(1.0022237206206 -0.0053339091985944 0)
(1.0025889011532 -0.0057351292797525 0)
(1.0029802540105 -0.006129585787646 0)
(1.0033980259049 -0.0065176882265562 0)
(1.0038407887512 -0.0068972831926002 0)
(1.0043095550592 -0.0072704160613831 0)
(1.0048016787441 -0.0076330691224497 0)
(1.005319932785 -0.007990578355871 0)
(1.0058589946136 -0.0083341487203785 0)
(1.0064255472296 -0.008676207760073 0)
(1.0070082973123 -0.0089968922576005 0)
(1.0076226570686 -0.0093249160424406 0)
(1.0082440656379 -0.0096155573113534 0)
(1.0089075070584 -0.0099350120926264 0)
(1.0095591117661 -0.010182210674866 0)
(1.0102774626179 -0.010508611703511 0)
(1.0109447827885 -0.010684768968031 0)
(1.0117350233747 -0.011055466142965 0)
(1.0000007438478 -0.00026977478497684 0)
(1.0000328513321 -0.00080213186037536 0)
(1.0000939987088 -0.0013322770113825 0)
(1.0001850113602 -0.0018613573170071 0)
(1.0003063198914 -0.002389011710242 0)
(1.0004579061419 -0.0029145096392856 0)
(1.0006394701405 -0.0034369317100955 0)
(1.0008507346478 -0.0039555958535098 0)
(1.0010913951893 -0.0044700546358785 0)
(1.0013613803302 -0.0049802820858424 0)
(1.0016604460906 -0.0054858992080302 0)
(1.0019886291634 -0.0059866668523646 0)
(1.0023454173919 -0.0064814153611888 0)
(1.0027309201331 -0.0069698203660072 0)
(1.0031441405835 -0.0074500990392161 0)
(1.0035856055417 -0.0079228534099201 0)
(1.0040535045051 -0.0083854406744578 0)
(1.0045494800448 -0.0088405428429527 0)
(1.0050700259835 -0.0092831134339251 0)
(1.0056193000865 -0.0097199758671126 0)
(1.0061900142883 -0.010139949001433 0)
(1.006791898682 -0.010558842065826 0)
(1.0074091792012 -0.010951321444209 0)
(1.0080640487554 -0.011353939540485 0)
(1.0087217996015 -0.011709623253381 0)
(1.0094326383252 -0.012102797276644 0)
(1.0101198799908 -0.012404402364285 0)
(1.0108962861499 -0.012807911757899 0)
(1.0115933791186 -0.01302002734807 0)
(1.0124610491992 -0.013481763973642 0)
(1.0000008341472 -0.00031855854887635 0)
(1.0000348896196 -0.00094514376356124 0)
(1.0000995068426 -0.0015681959837648 0)
(1.0001954779072 -0.0021896508025032 0)
(1.0003232109482 -0.0028093967988847 0)
(1.0004826959174 -0.003426736714463 0)
(1.0006736395346 -0.0040406248245253 0)
(1.0008957966303 -0.0046502911360976 0)
(1.0011488776793 -0.0052552920355253 0)
(1.0014328895098 -0.0058556945529671 0)
(1.0017476096984 -0.0064510653885027 0)
(1.0020931918267 -0.0070410768689532 0)
(1.0024690756658 -0.0076242461938902 0)
(1.0028755348878 -0.0082001728084105 0)
(1.0033113964317 -0.0087667245025744 0)
(1.0037775210218 -0.0093247470644777 0)
(1.0042716891266 -0.0098711052614538 0)
(1.0047962753238 -0.010409207665139 0)
(1.0053468278641 -0.010932913552174 0)
(1.0059290921223 -0.011450683017673 0)
(1.0065335846449 -0.011948734213264 0)
(1.0071735079331 -0.012446567975954 0)
(1.0078280366206 -0.012912846164757 0)
(1.0085270801971 -0.013392698426491 0)
(1.009224429795 -0.013815463949232 0)
(1.0099876189041 -0.014285601407219 0)
(1.01071402357 -0.014643195311046 0)
(1.0115553478098 -0.015128068831187 0)
(1.0122853813712 -0.015376340668521 0)
(1.0132405957876 -0.015935519142873 0)
(1.0000009297478 -0.00036738609381671 0)
(1.000036876036 -0.0010875215099912 0)
(1.0001048202187 -0.0018024671239564 0)
(1.0002055105821 -0.002515172818234 0)
(1.0003393317488 -0.0032259019192251 0)
(1.0005062908679 -0.0039340584383101 0)
(1.000706113979 -0.0046384910481471 0)
(1.0009386034116 -0.0053383612605078 0)
(1.0012034996955 -0.0060332683119112 0)
(1.0015009093866 -0.0067234153606861 0)
(1.0018306505328 -0.0074083266071867 0)
(1.00219302124 -0.0080875735176731 0)
(1.0025874288436 -0.0087593284597478 0)
(1.0030143452485 -0.0094231128487226 0)
(1.0034724288693 -0.010076443553257 0)
(1.0039629269859 -0.010720465085438 0)
(1.0044832028845 -0.011351554182744 0)
(1.0050364563612 -0.011973938055009 0)
(1.0056172371039 -0.012580323494795 0)
(1.0062330548582 -0.013180955383423 0)
(1.0068720613589 -0.013759242103108 0)
(1.0075512927934 -0.014338682183613 0)
(1.0082444229449 -0.014881398940183 0)
(1.0089898614127 -0.015441838318994 0)
(1.0097287949041 -0.015934497271393 0)
(1.0105478542748 -0.016485702693349 0)
(1.0113158762526 -0.016901741157247 0)
(1.0122275301115 -0.017473245832946 0)
(1.0129929763124 -0.017758777931208 0)
(1.0140442780819 -0.018423001135858 0)
(1.000001028007 -0.00041597715038879 0)
(1.0000387049186 -0.0012284253455383 0)
(1.0001096388207 -0.0020336962537924 0)
(1.0002145239288 -0.0028359848080446 0)
(1.000353721139 -0.0036360594219705 0)
(1.0005272648788 -0.0044334977781506 0)
(1.0007349146663 -0.0052270678261153 0)
(1.000976536693 -0.0060158860964162 0)
(1.001251918622 -0.0067996386047516 0)
(1.0015612889229 -0.0075787118365947 0)
(1.0019045283058 -0.0083526039271016 0)
(1.0022821079132 -0.0091207762171743 0)
(1.0026934244182 -0.0098810301269352 0)
(1.0031391821735 -0.010632810554344 0)
(1.0036178895132 -0.011373290177622 0)
(1.0041312302678 -0.01210396970368 0)
(1.0046761611378 -0.012820753169239 0)
(1.0052567896016 -0.013528777011738 0)
(1.0058666480353 -0.014219551817998 0)
(1.0065151573987 -0.014905246130126 0)
(1.0071880017398 -0.015566270563701 0)
(1.0079063391849 -0.016230405449245 0)
(1.0086380254062 -0.016852734162014 0)
(1.0094305915453 -0.017497717069187 0)
(1.0102117877795 -0.0180638052312 0)
(1.0110887421876 -0.018700962544028 0)
(1.0118997338988 -0.019178806551111 0)
(1.0128856008553 -0.019843154867699 0)
(1.0136882321778 -0.020168108552808 0)
(1.0148425014607 -0.020946076917011 0)
(1.0000011259017 -0.00046396700693076 0)
(1.000040276124 -0.0013667840528016 0)
(1.0001136807856 -0.002260119980223 0)
(1.0002219701899 -0.0031496440392751 0)
(1.0003654825288 -0.0040367615723035 0)
(1.0005442901469 -0.0049212987457582 0)
(1.000758200625 -0.0058019714362036 0)
(1.0010071599506 -0.0066778785846247 0)
(1.0012910208218 -0.0075488412993592 0)
(1.001610155454 -0.0084154798454479 0)
(1.0019645315566 -0.0092772877424712 0)
(1.0023548211719 -0.010133610741326 0)
(1.0027804368292 -0.010981860915214 0)
(1.0032423481048 -0.011821412036298 0)
(1.0037389413283 -0.012649109757041 0)
(1.0042723822511 -0.013466869575276 0)
(1.0048392497886 -0.014270152418441 0)
(1.0054446282728 -0.015065089571555 0)
(1.0060810489556 -0.015841973680907 0)
(1.0067599576444 -0.016615018932232 0)
(1.0074645365938 -0.017361487336502 0)
(1.0082202766137 -0.018113685304319 0)
(1.0089890398878 -0.018819221200785 0)
(1.0098279184238 -0.019553185225507 0)
(1.0106506932165 -0.020196899403005 0)
(1.0115859893227 -0.020925572366154 0)
(1.0124401406358 -0.021469501306128 0)
(1.0135024656954 -0.022233760940645 0)
(1.0143433202566 -0.022601485587249 0)
(1.0156056473817 -0.023502869384273 0)
(1.000001220597 -0.00051093972169828 0)
(1.000041499107 -0.0015013921490702 0)
(1.0001166920022 -0.0024797654572841 0)
(1.0002273588953 -0.0034534242030459 0)
(1.000373817665 -0.0044245402028593 0)
(1.0005561881449 -0.0053932634441763 0)
(1.0007743392212 -0.00635828981006 0)
(1.0010283108696 -0.0073187314256233 0)
(1.0013180384713 -0.0082745960951606 0)
(1.0016440580957 -0.0092267900247961 0)
(1.0020064492492 -0.010174828295226 0)
(1.0024061100132 -0.011117939553209 0)
(1.0028424981255 -0.01205313751114 0)
(1.003316877704 -0.012979734293651 0)
(1.0038275492054 -0.013894278092232 0)
(1.0043771989605 -0.014799157479814 0)
(1.0049620737696 -0.015689437389593 0)
(1.0055882881008 -0.016572321100852 0)
(1.0062474227035 -0.017436891039882 0)
(1.0069530247352 -0.018299504415869 0)
(1.0076858123406 -0.019134177473842 0)
(1.0084757343427 -0.019977929050859 0)
(1.0092786330851 -0.020770559132218 0)
(1.010161413164 -0.021598276800698 0)
(1.0110236666148 -0.022324388400042 0)
(1.0120160854 -0.02315068995979 0)
(1.0129123497783 -0.023765887988721 0)
(1.0140516183528 -0.024637853134599 0)
(1.0149309217069 -0.025052987508152 0)
(1.0163044603015 -0.026088259224143 0)
(1.0000013095728 -0.00055646020313547 0)
(1.0000422988463 -0.001631005374205 0)
(1.0001184614353 -0.0026906057505342 0)
(1.0002302840399 -0.0037445269810603 0)
(1.000378066851 -0.0047958319712651 0)
(1.0005619839921 -0.0058450693851757 0)
(1.0007819762936 -0.0068909502065052 0)
(1.0010381893639 -0.007932632882997 0)
(1.0013306577156 -0.0089703652727652 0)
(1.0016600981591 -0.010005391750449 0)
(1.0020267252947 -0.011037279432517 0)
(1.0024316837626 -0.012065142230474 0)
(1.0028745068852 -0.013085597073735 0)
(1.0033567773913 -0.014097907824145 0)
(1.0038767520787 -0.015098368633188 0)
(1.0044376675989 -0.016089897356199 0)
(1.0050354989916 -0.017067230373563 0)
(1.0056774256625 -0.01803870780747 0)
(1.0063541608723 -0.018992246143811 0)
(1.0070813895789 -0.019946410080919 0)
(1.0078374732266 -0.020871943381707 0)
(1.0086568552617 -0.021810685692024 0)
(1.0094894845891 -0.022694435841382 0)
(1.0104121255218 -0.023620834290935 0)
(1.0113102961771 -0.024434572827953 0)
(1.0123568795272 -0.025364989061522 0)
(1.0132928981603 -0.026057516321968 0)
(1.0145077292515 -0.027045541118476 0)
(1.0154247899398 -0.027514115220891 0)
(1.0169105762977 -0.028694324815207 0)
(1.0000013906018 -0.00060010161958896 0)
(1.0000426179429 -0.0017544168772677 0)
(1.0001188350391 -0.0028906824517471 0)
(1.0002304505713 -0.0040202517732876 0)
(1.0003777451544 -0.0051471963006371 0)
(1.0005609508995 -0.0062725355671182 0)
(1.0007800900856 -0.0073950320166857 0)
(1.0010354238569 -0.0085139243291916 0)
(1.0013271003268 -0.0096297541690719 0)
(1.0016560291553 -0.010744155020209 0)
(1.0020225801184 -0.011856780364975 0)
(1.0024281587129 -0.012966635202925 0)
(1.0028724032958 -0.014069952452905 0)
(1.0033572320517 -0.01516596412599 0)
(1.0038809038568 -0.016250768359787 0)
(1.0044472242209 -0.017327864035906 0)
(1.0050519683909 -0.018391748999031 0)
(1.0057033945733 -0.01945194847382 0)
(1.0063914608215 -0.020495300746462 0)
(1.0071339828376 -0.021542600411808 0)
(1.007907142149 -0.022561380354178 0)
(1.0087498152061 -0.023598306440395 0)
(1.009606343077 -0.024577172570675 0)
(1.0105631712978 -0.025607106429282 0)
(1.0114922210769 -0.026514024272657 0)
(1.0125881701287 -0.027555110989741 0)
(1.0135601846036 -0.028331887650074 0)
(1.0148471813446 -0.029444513556352 0)
(1.0158003217679 -0.029974146414016 0)
(1.0173973176734 -0.03131090085376 0)
(1.0000014610654 -0.00064146358227734 0)
(1.0000424172435 -0.0018705077532096 0)
(1.0001177130125 -0.003078192405024 0)
(1.0002276666851 -0.0042781228502429 0)
(1.0003725347454 -0.0054754850584006 0)
(1.0005526096748 -0.0066718351339257 0)
(1.0007680030589 -0.0078660222879086 0)
(1.0010190977576 -0.0090573983362724 0)
(1.0013061660853 -0.010246851123616 0)
(1.0016303167772 -0.011436451157122 0)
(1.0019920905225 -0.012625975686068 0)
(1.0023931605266 -0.01381432931503 0)
(1.0028332967765 -0.014997385033125 0)
(1.0033147605762 -0.016174361056084 0)
(1.0038358593131 -0.01734123240681 0)
(1.0044009724206 -0.018502123316515 0)
(1.0050057555013 -0.019651407696778 0)
(1.0056595360597 -0.020799822660193 0)
(1.0063516551068 -0.021933266600437 0)
(1.0071020045984 -0.023074734069603 0)
(1.007884834881 -0.024188717642041 0)
(1.0087432760017 -0.02532658022203 0)
(1.0096165587685 -0.026404363872968 0)
(1.01060026881 -0.027542357685089 0)
(1.0115538685632 -0.028548229489796 0)
(1.0126922931634 -0.029706192973302 0)
(1.0136954964986 -0.030575033443964 0)
(1.0150484019501 -0.031820229901262 0)
(1.0160350412974 -0.032420226845203 0)
(1.0177396002686 -0.033924763303703 0)
(1.0000015194347 -0.00068018922227556 0)
(1.0000416764637 -0.0019782998390145 0)
(1.0001150438241 -0.0032515758245724 0)
(1.0002218358495 -0.0045160102895942 0)
(1.0003622794553 -0.0057779942238802 0)
(1.000536727532 -0.0070396774049137 0)
(1.0007453856898 -0.0083000288941844 0)
(1.0009887600196 -0.0095585442708812 0)
(1.0012672523883 -0.010816506786685 0)
(1.0015821691919 -0.012076466598799 0)
(1.0019342319577 -0.01333836359273 0)
(1.0023253800679 -0.014601011788724 0)
(1.0027555376804 -0.01585995963432 0)
(1.0032273061329 -0.017114429344705 0)
(1.0037390863892 -0.018360360824195 0)
(1.0042958208663 -0.019602536514179 0)
(1.0048931308294 -0.020835347714811 0)
(1.005541376637 -0.022070742265296 0)
(1.0062294440406 -0.023293874449817 0)
(1.0069791900905 -0.024529847019474 0)
(1.0077632671137 -0.025740404796102 0)
(1.0086287118095 -0.026981333561645 0)
(1.0095104669142 -0.028161455027005 0)
(1.0105120718284 -0.029411460843003 0)
(1.0114830436857 -0.030522266544637 0)
(1.0126542333124 -0.031802093787125 0)
(1.0136850397232 -0.032773652667727 0)
(1.0150905481254 -0.034153607112717 0)
(1.0161169252105 -0.034845111083451 0)
(1.0179137712333 -0.036520453477884 0)
(1.0000015645943 -0.00071598220930754 0)
(1.0000403920675 -0.0020770022788211 0)
(1.0001108247935 -0.0034095862328406 0)
(1.0002129600628 -0.004732220524834 0)
(1.0003469879644 -0.0060525749764275 0)
(1.0005133188469 -0.0073734403165715 0)
(1.0007122535287 -0.0086939353233626 0)
(1.0009444177418 -0.010013726585775 0)
(1.0012103432843 -0.011334537442851 0)
(1.0015115254559 -0.01265943352297 0)
(1.0018488698848 -0.013988556188021 0)
(1.0022245698736 -0.015320637944798 0)
(1.0026387211327 -0.016650948057926 0)
(1.0030942492578 -0.017978727514351 0)
(1.0035896925363 -0.019299984508924 0)
(1.0041305253783 -0.020620175927505 0)
(1.004712425623 -0.021933881800069 0)
(1.0053467166213 -0.023254222221386 0)
(1.0060220119011 -0.024565869210028 0)
(1.0067619691564 -0.025895867662221 0)
(1.0075380190738 -0.027203639345199 0)
(1.0084007038167 -0.028548973353147 0)
(1.0092814856034 -0.029834253602932 0)
(1.0102908819907 -0.031199539442983 0)
(1.0112701675504 -0.032420802232984 0)
(1.0124640597701 -0.033827610367676 0)
(1.0135142607076 -0.034910345932619 0)
(1.014963493463 -0.036433152848508 0)
(1.0160220160975 -0.037226018751813 0)
(1.017904573578 -0.039082373516285 0)
(1.0000015955585 -0.00074861590955659 0)
(1.0000385775487 -0.0021660328914889 0)
(1.0001051018776 -0.0035513237660581 0)
(1.0002011352199 -0.0049255423807171 0)
(1.000326823357 -0.0062976934486277 0)
(1.0004826284679 -0.0076712454799413 0)
(1.0006689437083 -0.0090454923495052 0)
(1.0008865057679 -0.010420294288315 0)
(1.0011359714917 -0.011797853195353 0)
(1.0014190086585 -0.0131817783261 0)
(1.0017367046045 -0.014572450268416 0)
(1.0020914834993 -0.015968527686306 0)
(1.0024836253568 -0.017365053880956 0)
(1.0029163465959 -0.018761297666969 0)
(1.0033883686901 -0.020153452133624 0)
(1.0039056374107 -0.021547643619774 0)
(1.0044639943683 -0.022938844826023 0)
(1.005075603216 -0.024341260028448 0)
(1.0057290264432 -0.025739423786692 0)
(1.0064494851045 -0.027162048520839 0)
(1.0072075951084 -0.028566836848245 0)
(1.0080570104477 -0.030016963526533 0)
(1.0089263166265 -0.031409399543054 0)
(1.0099325739181 -0.032892503654799 0)
(1.0109093769023 -0.03422867959773 0)
(1.0121152039528 -0.035767717347726 0)
(1.0131742240868 -0.03696864888669 0)
(1.0146573952212 -0.038642513581688 0)
(1.0157382597998 -0.039546915088172 0)
(1.0176975499725 -0.041593445573812 0)
(1.0000016121944 -0.00077793675683023 0)
(1.000036261827 -0.0022450266250473 0)
(1.0000979634968 -0.0036762479526844 0)
(1.0001865405483 -0.0050952643827414 0)
(1.0003020852742 -0.0065124531231 0)
(1.0004451037536 -0.0079319862270775 0)
(1.0006160757436 -0.0093533531238481 0)
(1.0008158354436 -0.010776625575794 0)
(1.001045154693 -0.012204514641272 0)
(1.0013058495183 -0.013641193176029 0)
(1.0015991807735 -0.01508731462625 0)
(1.0019277695597 -0.016541471383834 0)
(1.00229209116 -0.017998537482201 0)
(1.0026955998692 -0.019457816423194 0)
(1.0031372526905 -0.020915806336674 0)
(1.0036233634485 -0.022379282400436 0)
(1.0041500807666 -0.023843833494046 0)
(1.0047301903822 -0.02532461582699 0)
(1.005352537339 -0.026806449545132 0)
(1.0060434498898 -0.028319315187106 0)
(1.0067734294441 -0.029820020547981 0)
(1.0075983621714 -0.031374207435872 0)
(1.0084452221795 -0.03287490295565 0)
(1.0094362273903 -0.034477262013177 0)
(1.0103990505342 -0.035931802484069 0)
(1.0116043806931 -0.037607802749902 0)
(1.012660774822 -0.038932465791718 0)
(1.0141658038056 -0.040766136990794 0)
(1.0152584433305 -0.041790813573314 0)
(1.0172820177995 -0.044035161887392 0)
(1.0000016144316 -0.00080386253394375 0)
(1.0000334855488 -0.002313828717619 0)
(1.0000895329178 -0.0037841682764705 0)
(1.0001694232033 -0.005241165170493 0)
(1.0002731858289 -0.0066965860641612 0)
(1.0004013600979 -0.0081553205030942 0)
(1.0005545027483 -0.009617067987229 0)
(1.0007335290125 -0.011082124944621 0)
(1.0009393116527 -0.012553733751319 0)
(1.0011737849536 -0.014036644677047 0)
(1.001438367937 -0.015531810753876 0)
(1.0017358362518 -0.017037767685047 0)
(1.0020668647535 -0.0185492707929 0)
(1.0024350818158 -0.020065671715355 0)
(1.0028397287967 -0.021583877292779 0)
(1.0032873592578 -0.023111301839318 0)
(1.0037745841746 -0.024644345216694 0)
(1.0043145217073 -0.026199007459353 0)
(1.0048967266583 -0.027760785569173 0)
(1.0055479387509 -0.029360556527262 0)
(1.0062396487291 -0.030955074162542 0)
(1.0070282829619 -0.032611437378661 0)
(1.0078418710636 -0.034220537892173 0)
(1.0088039572998 -0.035942122985524 0)
(1.0097418209601 -0.037517751358487 0)
(1.0109314305424 -0.039334054911361 0)
(1.0119744295593 -0.040786560850106 0)
(1.0134852146005 -0.042789743531928 0)
(1.0145820845163 -0.043938727000544 0)
(1.0166434222256 -0.046388359233432 0)
(1.0000016027069 -0.00082637433008596 0)
(1.000030292215 -0.0023724701463793 0)
(1.0000799456019 -0.0038752048885247 0)
(1.0001500655132 -0.0053634626048225 0)
(1.0002406071785 -0.0068503962030948 0)
(1.0003521274417 -0.0083416154365912 0)
(1.0004852469193 -0.0098370370509712 0)
(1.0006409411686 -0.011337185013413 0)
(1.0008201644142 -0.012845842409808 0)
(1.0010249353764 -0.014368344939062 0)
(1.0012568102358 -0.015905969018842 0)
(1.0015186766313 -0.01745720919232 0)
(1.0018113996304 -0.019016743643763 0)
(1.0021387229485 -0.020583993475622 0)
(1.0025001871897 -0.022156346254882 0)
(1.0029024850197 -0.02374187374168 0)
(1.0033427651106 -0.025337908093695 0)
(1.003834276525 -0.026961278457639 0)
(1.0043675251249 -0.028598383824625 0)
(1.0049692023076 -0.030280872440353 0)
(1.0056124880526 -0.031965933544922 0)
(1.0063531642248 -0.033721603361428 0)
(1.0071223330889 -0.035437995043709 0)
(1.0080415420976 -0.037277276181903 0)
(1.0089432486482 -0.038976619544103 0)
(1.0101002264343 -0.04093250489182 0)
(1.0111193397974 -0.042520113546291 0)
(1.0126178215008 -0.044696837097749 0)
(1.0137080994048 -0.045976256455767 0)
(1.0157851791706 -0.048636887055363 0)
(1.0000015756591 -0.00084550813075461 0)
(1.0000267205938 -0.0024211348913977 0)
(1.000069332897 -0.0039497240624814 0)
(1.0001287518014 -0.0054627096614797 0)
(1.0002048458064 -0.0069746133809784 0)
(1.0002981692374 -0.0084917662864616 0)
(1.0004093978345 -0.010014308475769 0)
(1.000539546047 -0.011542982121847 0)
(1.0006896215264 -0.013082102029788 0)
(1.0008616758358 -0.01463757655652 0)
(1.001057376941 -0.016211024123025 0)
(1.0012796800355 -0.017800913339932 0)
(1.0015296362364 -0.019401891873585 0)
(1.0018110436692 -0.021013467250633 0)
(1.0021237438006 -0.022633567159857 0)
(1.0024744732023 -0.024270940488608 0)
(1.0028609400495 -0.025923926149525 0)
(1.0032963851947 -0.027610222255286 0)
(1.0037723324765 -0.029317202832277 0)
(1.0043152170389 -0.031077397116636 0)
(1.00490008305 -0.032848462733165 0)
(1.0055817078587 -0.034699648591023 0)
(1.0062948380883 -0.036520281587449 0)
(1.0071579350796 -0.038475169105945 0)
(1.0080110953333 -0.040298090601215 0)
(1.009118686051 -0.042392051014404 0)
(1.01010367262 -0.044122379069027 0)
(1.0115657373881 -0.046464910755279 0)
(1.0126458096312 -0.047897870385523 0)
(1.0147166121675 -0.050764568013252 0)
(1.0000015300848 -0.00086136716335033 0)
(1.000022823254 -0.0024601822549896 0)
(1.0000578572549 -0.0040083293413972 0)
(1.0001058168182 -0.0055397143412061 0)
(1.000166456231 -0.0070702217642206 0)
(1.0002402976396 -0.0086069181619068 0)
(1.0003280813194 -0.01015016905834 0)
(1.0004308509526 -0.011700916881706 0)
(1.0005496525479 -0.013264005397177 0)
(1.0006864944227 -0.014845895111052 0)
(1.000843127267 -0.016448559573169 0)
(1.0010224915908 -0.018070423081529 0)
(1.0012258614379 -0.01970615190734 0)
(1.0014569723082 -0.021355306593136 0)
(1.0017160524063 -0.023016443442733 0)
(1.0020096557096 -0.024698931229516 0)
(1.002336240726 -0.026402263160265 0)
(1.0027086487384 -0.028144929609881 0)
(1.0031198023059 -0.029915449043637 0)
(1.0035952393963 -0.0317472356489 0)
(1.0041125017346 -0.033598392694904 0)
(1.0047244492244 -0.035539932337683 0)
(1.0053703600406 -0.037459409978177 0)
(1.0061646191858 -0.039526702458562 0)
(1.00695604904 -0.041468465258898 0)
(1.0079996945164 -0.043700782093315 0)
(1.0089363619207 -0.045570577904431 0)
(1.0103435626952 -0.04808022518085 0)
(1.0114022649063 -0.049674201729214 0)
(1.0134445908351 -0.052734810466448 0)
(1.0000014621945 -0.00087418146205688 0)
(1.0000187432374 -0.0024903807012921 0)
(1.0000458844272 -0.0040522277231225 0)
(1.0000818759764 -0.0055959781047973 0)
(1.0001263025103 -0.0071389246775295 0)
(1.0001796390897 -0.0086889350111141 0)
(1.0002427381882 -0.010246607498268 0)
(1.0003166583598 -0.011813029152069 0)
(1.000402474449 -0.013393540261975 0)
(1.0005020771931 -0.014995163986324 0)
(1.0006173069171 -0.01662032463702 0)
(1.0007509720867 -0.018267406085077 0)
(1.000904670148 -0.019931161026376 0)
(1.0010818450387 -0.021611074407184 0)
(1.0012833604965 -0.023306459491817 0)
(1.0015150607796 -0.025027068517804 0)
(1.0017767945251 -0.02677390359156 0)
(1.0020798716503 -0.028565792062427 0)
(1.0024201463752 -0.03039312228335 0)
(1.0028198380888 -0.032289373138819 0)
(1.0032623406677 -0.034214239334157 0)
(1.0037936542876 -0.036239590783358 0)
(1.0043642782144 -0.038251679886426 0)
(1.0050751105061 -0.04042696360885 0)
(1.0057962358187 -0.042479562137465 0)
(1.006756534344 -0.044853269665038 0)
(1.0076378645114 -0.046847242324116 0)
(1.0089668127671 -0.049548430549867 0)
(1.0099998631475 -0.051259691379068 0)
(1.0119836463075 -0.054579422417167 0)
(1.0000013437219 -0.00088440852275025 0)
(1.0000146491111 -0.0025133526563442 0)
(1.0000339525655 -0.0040841094921478 0)
(1.0000578070837 -0.0056352197695742 0)
(1.0000854939342 -0.0071853977896132 0)
(1.000117445235 -0.0087433882537298 0)
(1.0001548139935 -0.010310131852769 0)
(1.0001988264285 -0.011886789397405 0)
(1.0002504875961 -0.013479082383692 0)
(1.0003113851128 -0.015094508389644 0)
(1.0003833997245 -0.016736055097101 0)
(1.0004691400665 -0.018402236059294 0)
(1.000570670633 -0.020088162949429 0)
(1.0006909653297 -0.021793246911762 0)
(1.000831831946 -0.02351778655018 0)
(1.0009977701271 -0.025271641465097 0)
(1.001190837223 -0.027057902355673 0)
(1.0014192249335 -0.028894941047018 0)
(1.0016840817083 -0.030776535845861 0)
(1.0020002513926 -0.032734064570117 0)
(1.0023632716994 -0.034732605420951 0)
(1.0028020418522 -0.036839730057455 0)
(1.0032937265623 -0.038948966867747 0)
(1.0039012903134 -0.041233432640036 0)
(1.0045527568797 -0.043406355583024 0)
(1.0053932877102 -0.045933212850841 0)
(1.0062318193752 -0.048058852265024 0)
(1.0074170183179 -0.051007172824639 0)
(1.0084895803842 -0.052812074605266 0)
(1.0103340414684 -0.056684231894259 0)
(1.0000010397237 -0.0008935220472031 0)
(1.0000098586049 -0.0025335757245268 0)
(1.0000213741026 -0.0041124911481896 0)
(1.000033105261 -0.0056711516355477 0)
(1.0000439922626 -0.0072295632521745 0)
(1.0000546039511 -0.0087970914517142 0)
(1.0000661542964 -0.010374899632329 0)
(1.0000797768086 -0.011964225757565 0)
(1.0000964373286 -0.013571172674688 0)
(1.000117350719 -0.015203837322095 0)
(1.0001444111113 -0.016865780368074 0)
(1.0001800885947 -0.018555528118714 0)
(1.0002269907377 -0.02026852874695 0)
(1.000287691794 -0.022004154278032 0)
(1.0003648076801 -0.023764290273663 0)
(1.0004615247208 -0.025559163777277 0)
(1.0005819412844 -0.027395132748904 0)
(1.0007310458362 -0.029289586718217 0)
(1.000915341432 -0.03124226343218 0)
(1.0011415892627 -0.03327919527176 0)