/*--------------------------------*- C++ -*----------------------------------*\
| =========                 |                                                 |
| \\      /  F ield         | OpenFOAM: The Open Source CFD Toolbox           |
|  \\    /   O peration     | Version:  2112                                  |
|   \\  /    A nd           | Website:  www.openfoam.com                      |
|    \\/     M anipulation  |                                                 |
\*---------------------------------------------------------------------------*/
FoamFile
{
    version     2.0;
    format      ascii;
    arch        "LSB;label=32;scalar=64";
    class       surfaceScalarField;
    location    "10.6";
    object      phi;
}
// * * * * * * * * * * * * * * * * * * * * * * * * * * * * * * * * * * * * * //

dimensions      [0 3 -1 0 0 0 0];

oriented        oriented;

internalField   nonuniform List<scalar> 
43645
(
0.39512370133285
-4.8282882136817e-06
0.39513811640534
-1.4415095594823e-05
0.39516212095748
-2.4004577103615e-05
0.39519570915456
-3.3588222844963e-05
0.39523886188981
-4.3152761102978e-05
0.3952915465636
-5.2684699323705e-05
0.39535372073172
-6.2174193123702e-05
0.39542533197433
-7.1611266964295e-05
0.3955063120668
-8.0980116139308e-05
0.39559657679015
-9.0264746307212e-05
0.39569602143941
-9.9444671481467e-05
0.39580452838788
-0.00010850696998148
0.39592195994811
-0.00011743158103728
0.3960481738218
-0.00012621389382471
0.39618300226491
-0.00013482846260116
0.39632628428331
-0.00014328203730266
0.39647781709382
-0.00015153282885625
0.39663743118312
-0.00015961410717804
0.39680487734719
-0.00016744618153446
0.39697999606011
-0.00017511873004289
0.39716245204748
-0.00018245600423306
0.39735212384255
-0.0001896718117528
0.39754849744908
-0.0001963736231042
0.397751574982
-0.0002030775494732
0.39796049364233
-0.00020891867692121
0.39817562572462
-0.00021513209901927
0.39839540961219
-0.00021978390447732
0.39862116702076
-0.00022575742550367
0.39884982255832
-0.00022865555442377
-0.00023507814146605
0.39908490068242
0.3729470800773
-9.3536607330997e-06
0.37296070852682
-2.8043584188173e-05
0.37298356592128
-4.6862011323836e-05
0.37301566567386
-6.5688015111155e-05
0.37305699399206
-8.4481118419296e-05
0.37310751946085
-0.00010321020647454
0.37316720085488
-0.0001218556246161
0.37323598922511
-0.00014039967374956
0.37331382323301
-0.00015881415962241
0.37340062873194
-0.00017707027986534
0.37349631301922
-0.0001951289924095
0.37360077076741
-0.00021296475088859
0.37371387615781
-0.00023053700321023
0.3738354983888
-0.00024783615570731
0.37396548174132
-0.00026481184516343
0.3741036780376
-0.00028147836285795
0.37424989819392
-0.00029775301375406
0.37440398603429
-0.00031370197551927
0.37456570503863
-0.00032916521331709
0.37473490638997
-0.00034432010841517
0.37491126526718
-0.00035881490815433
0.37509466913035
-0.00037307570143185
0.37528461613956
-0.0003863206586925
0.37548111883221
-0.00039958026850434
0.37568333347131
-0.00041113334246869
0.37589164426183
-0.00042344291615691
0.37610452152167
-0.00043266119118656
0.37632329591356
-0.00044453184420707
0.37654495382605
-0.00045031349314545
-0.00046316469629043
0.37677304035362
0.35201537687353
-1.3833046884324e-05
0.3520288178839
-4.1484634369331e-05
0.35205129952772
-6.9343695075107e-05
0.35208285777597
-9.72463027808e-05
0.35212349096761
-0.00012511434862552
0.3521731662373
-0.00015288551372472
0.35223183526486
-0.00018052468864984
0.35229944505058
-0.00020800949485672
0.35237593748851
-0.00023530663180114
0.35246124885696
-0.00026238168145331
0.35255530058339
-0.00028918075084408
0.35265800220668
-0.00031566640510424
0.35276924088334
-0.00034177570974165
0.35288889844721
-0.00036749374846869
0.35301683087392
-0.0003927442998411
0.35315290466247
-0.00041755217856772
0.35329694318175
-0.00044179155946044
0.35344880604427
-0.00046556486388218
0.35360826295961
-0.00048862215401305
0.35377517798888
-0.00051123516268632
0.3539492205799
-0.0005328575239477
0.35413029520062
-0.0005541503468261
0.35431788172184
-0.00057390720461406
0.35451203146475
-0.00059373003626249
0.35471185839429
-0.00061096029711341
0.3549178303134
-0.00062941486074663
0.35512830841229
-0.0006431393159992
0.35534479342573
-0.00066101688373672
0.35556399826834
-0.0006695183614138
-0.00068896987120731
0.35578980341632
0.33225847379371
-1.8262914719282e-05
0.33227179181775
-5.4802694518862e-05
0.33229409598091
-9.1647894462501e-05
0.33232544109998
-0.00012859145764983
0.33236583269816
-0.00016550598185376
0.33241523356009
-0.00020228640984467
0.33247358634688
-0.00023887750869814
0.33254083285109
-0.00027525603137642
0.33261691835044
-0.00031139216247571
0.33270179141781
-0.00034725477917306
0.33279539048539
-0.00038277984776891
0.33289764321599
-0.00041791916410697
0.33300845236364
-0.00045258488484349
0.33312771506504
-0.00048675647646949
0.3332553010453
-0.00052033030585667
0.33339109472624
-0.0005533458845556
0.333534933779
-0.00058563063661236
0.33368669711487
-0.00061732822360869
0.33384615963974
-0.00064808470228707
0.33401320076309
-0.00067827630912242
0.33418747748915
-0.00070713427286355
0.33436891520244
-0.00073558808286967
0.33455696155153
-0.00076195357643902
0.33475171947614
-0.00078848798371082
0.33495223452762
-0.00081147537161245
0.33515909357887
-0.0008362739353113
0.33537049737012
-0.00085454313089037
0.33558820685437
-0.000878726391697
0.33580856045493
-0.00088987198518363
-0.0009164290692054
0.33603601962854
0.31361045744892
-2.2663013716738e-05
0.31362371859224
-6.8063869493723e-05
0.31364596778763
-0.00011389712144323
0.31367728750002
-0.00015991120109038
0.31371769343975
-0.0002059119518652
0.31376714372272
-0.00025173672221655
0.31382557121627
-0.00029730503071106
0.31389291292672
-0.00034259776935306
0.31396911952504
-0.00038759878733798
0.31405415528648
-0.00043229056619945
0.31414797969467
-0.00047660428058153
0.31425054280321
-0.00052048229635863
0.31436176679275
-0.00056380889720461
0.31448156804779
-0.00060655775352688
0.31460983355876
-0.00064859583809125
0.31474647013094
-0.0006899824773652
0.31489133318262
-0.0007304937083497
0.31504432588063
-0.00077032094124409
0.31520523005129
-0.00080898889222202
0.31537394535921
-0.00084699163610675
0.31555011438179
-0.00088330331438061
0.31573369014115
-0.00091916386117603
0.31592408059873
-0.00095234405305306
0.31612145411784
-0.00098586152207115
0.31632476995722
-0.0010147912305401
0.31653476425456
-0.0010462682525789
0.31674943418104
-0.0010692130777431
0.31697086412557
-0.0011001563567959
0.31719491211959
-0.0011139199994386
-0.0011482662822792
0.31742674931115
0.29600907746967
-2.7038650537737e-05
0.29602230156066
-8.1287988973788e-05
0.2960445333244
-0.00013612891356944
0.29607588802289
-0.00019126592748743
0.29611639496885
-0.00024641892506211
0.29616600910447
-0.00030135088436206
0.29622465427703
-0.00035595022899379
0.29629226411026
-0.00041020762752582
0.29636879733502
-0.00046413203621863
0.29645423788356
-0.00051773113805987
0.29654857094982
-0.00057093736933614
0.29665177398967
-0.00062368535792939
0.29676379343145
-0.0006758283599457
0.29688456997312
-0.00072733431545826
0.2970140127257
-0.0007780386102755
0.29715205660366
-0.0008280263743664
0.29729857977519
-0.00087701689841121
0.29745351594177
-0.00092525712594383
0.2976166575986
-0.00097213056685453
0.29778793097684
-0.0010182650319136
0.29796696504308
-0.0010623373980257
0.29815374812801
-0.0011059469634641
0.29834764477838
-0.0011462407207869
0.2985489016121
-0.0011871183732603
0.29875637866125
-0.0012222682973149
0.29897098598045
-0.0012608755896438
0.29919048308151
-0.0012887101969291
0.29941732887834
-0.0013270021717912
0.29964682074438
-0.0013434118832307
-0.001386393857732
0.29988494830099
0.27939557626914
-3.1380422451082e-05
0.27940873905344
-9.4450797076777e-05
0.27943091685575
-0.00015830673951011
0.27946226106214
-0.0002226101570519
0.27950281727248
-0.00028697515795982
0.27955253927091
-0.00035107290470209
0.27961134371527
-0.00041475469455475
0.27967916315575
-0.00047802708851233
0.27975596755917
-0.00054093645941564
0.27984176465914
-0.00060352825711001
0.27993657015428
-0.00066574288284276
0.28004039417112
-0.0007275093924609
0.28015321273482
-0.00078864694067986
0.28027499659903
-0.00084911819611816
0.28040568272869
-0.00090872475582333
0.28054524069107
-0.00096758435217103
0.28069357752626
-0.0010253537486073
0.28085066476761
-0.0010823443819838
0.2810163110999
-0.0011377769135741
0.28119047704816
-0.0011924309944435
0.28137278152186
-0.0012446418859112
0.2815632571968
-0.001296422652578
0.28176122518799
-0.0013442087262141
0.28196702353507
-0.001392916734709
0.28217940595061
-0.001434650727418
0.2823994793363
-0.0014809489901429
0.28262474233362
-0.0015139732093651
0.2828580730738
-0.0015603329271515
0.28309414937233
-0.001579488196661
-0.0016321184174461
0.28333987391608
0.26371449677922
-3.5667771297018e-05
0.26372753938029
-0.00010749341862115
0.26374956776671
-0.00018033514623996
0.26378077179427
-0.00025381420456282
0.26382121557815
-0.00032741896131816
0.26387085394304
-0.00040071128859085
0.26392959871863
-0.00047349948860242
0.26399738416465
-0.00054581255248226
0.26407419486231
-0.00061774717446384
0.26416006640762
-0.0006893998192773
0.26425504964704
-0.00076072613857161
0.26435919257974
-0.00083165234094456
0.26447250637649
-0.00090196075268773
0.26459499793267
-0.00097160976709054
0.26472663838112
-0.0010403652186025
0.26486743901228
-0.001108384997278
0.26501734274126
-0.0011752574911714
0.26517636699909
-0.001241368653097
0.2653443437849
-0.0013057537124265
0.26552127690871
-0.0013693641311139
0.2657067814866
-0.0014301464765269
0.26590094498745
-0.0014905861660696
0.26610304903232
-0.0015463127836917
0.26631353675611
-0.0016034044711211
0.26653105394735
-0.0016521679313294
0.26675692534277
-0.0017068203983223
0.26698837527772
-0.0017454231572023
0.26722873840927
-0.00180069607151
0.26747203280505
-0.0018227826048892
-0.0018862326400568
0.26772614701437
0.2489134969768
-3.9872073928376e-05
0.24892633486695
-0.00012033132525698
0.24894807429349
-0.00020207458910987
0.24897894488365
-0.00028468481075988
0.24901903102661
-0.00036750511995559
0.24906829085667
-0.00044997113394358
0.24912663404776
-0.00053184269458832
0.24919399953946
-0.00061317805868338
0.24927038982815
-0.00069413747724351
0.2493558720489
-0.00077488205371909
0.24945053638845
-0.00085539049140041
0.24955447347457
-0.00093558943995949
0.24966773499252
-0.0010152222831312
0.24979036993896
-0.0010942447256795
0.24992239010731
-0.0011723853987585
0.25006385558649
-0.0012498504879698
0.25021475270434
-0.0013261546202617
0.25037515303311
-0.0014017689928848
0.25054492040037
-0.0014755210905228
0.25072411146956
-0.0015485552110039
0.2509123466097
-0.0016183816272671
0.25110977928188
-0.0016880188487973
0.25131565986649
-0.0017521933788304
0.25153055032183
-0.0018182949369932
0.25175299305445
-0.0018746106745452
0.25198454871851
-0.0019383760730371
0.25222216276828
-0.0019830372177281
0.25246965355973
-0.0020481868736322
0.25272035937865
-0.0020734884341971
-0.0021490777497282
0.25298320447719
0.23494317500171
-4.3959528678366e-05
0.23495570639462
-0.00013286273172967
0.23497698745805
-0.00022335566599735
0.2350072877946
-0.00031498516057533
0.23504671322683
-0.00040693056520879
0.2350952273336
-0.00049848525349863
0.23515274036365
-0.00058935573717738
0.23521919878493
-0.00067963649226952
0.23529462593902
-0.00076956464337237
0.23537912343281
-0.00085937955931406
0.23547282422278
-0.00094909129289125
0.23557586542368
-0.0010386306521427
0.23568834408327
-0.0011277009537361
0.2358103565573
-0.0012162572104738
0.23594196167125
-0.0013039905232316
0.23608327465821
-0.0013911634852417
0.23623433321158
-0.0014772131837308
0.23639527038252
-0.0015627061737279
0.23656599199738
-0.0016462427151321
0.2367466158742
-0.0017291790974231
0.23693678043165
-0.0018085461942054
0.23713671400194
-0.0018879524284695
0.23734565050929
-0.0019611298954835
0.23756428118002
-0.0020369256169607
0.23779105893755
-0.0021013884412657
0.23802779532661
-0.0021751124712527
0.23827116607311
-0.0022264079733625
0.23852548742346
-0.0023025082329308
0.23878342011187
-0.002331421131242
-0.0024205984830747
0.23905494083603
0.22175690411569
-4.7893864602509e-05
0.22176901811535
-0.00014497674204132
0.22178965527814
-0.00024399283937593
0.22181912417025
-0.00034445406316039
0.22185755247832
-0.00044535888360443
0.2219049110352
-0.00054584382058012
0.221961113229
-0.00064555794105234
0.22202611552811
-0.00074463880133013
0.22209996443111
-0.00084341355620398
0.22218279788821
-0.00094221302611382
0.22227479403626
-0.0010410874505173
0.22237613897499
-0.0011399756003047
0.22248697919077
-0.0012385411788047
0.22260746226456
-0.001336740293421
0.22273770017848
-0.0014342284461579
0.22287786790816
-0.0015313312237949
0.22302806317453
-0.0016274084588359
0.22318848519372
-0.001723128201519
0.22335909511144
-0.001816852641343
0.22354007527313
-0.001910159267488
0.2237311031702
-0.0019995740995496
0.22393248026706
-0.0020893295335092
0.2241434552153
-0.0021721048518272
0.22436483835459
-0.0022583087642653
0.22459503392857
-0.0023315840232193
0.22483608998121
-0.0024161685317687
0.22508446469722
-0.0024747826972168
0.22534495506224
-0.0025629986055947
0.22560960030675
-0.0025960663831001
-0.0027003939135525
0.22588939572941
0.20931067684887
-5.1638771611148e-05
0.20932226082835
-0.0001565607300132
0.20934206504638
-0.00026379706587724
0.20937043476723
-0.00037282379244402
0.20940751908917
-0.00048244321392503
0.20945329739266
-0.00059162213243502
0.20950768835336
-0.00069994891009785
0.20957066035288
-0.00080761080919093
0.20964228448482
-0.00091503769647657
0.20972273570263
-0.0010226642522437
0.20981223840736
-0.0011305901635374
0.2099110286136
-0.0012387658148218
0.21001930513798
-0.0013468177114084
0.21013726892165
-0.0014547040852634
0.21026509051107
-0.0015620500436894
0.21040300697338
-0.0016692476941288
0.21055118507195
-0.0017755865653642
0.21070989118894
-0.001881834326352
0.21087915903857
-0.0019861204987384
0.2110592300639
-0.002090230300448
0.21124985731796
-0.0021902013611496
0.21145138654992
-0.0022908587728759
0.21166316064322
-0.0023838789524298
0.21188602251626
-0.0024811706444624
0.21211848146687
-0.0025640429808941
0.21236264830413
-0.0026603353759352
0.21261500784926
-0.0027271422491667
0.21288052136443
-0.0028285121273322
0.21315124684451
-0.0028667918694514
-0.0029877171722523
0.21343857009658
0.19756295780336
-5.5160051311918e-05
0.19757390386546
-0.00016750679876153
0.19759269374316
-0.00028258695024898
0.19761970580463
-0.00039983586060016
0.19765510915383
-0.0005178465698454
0.19769889243593
-0.00063540542130714
0.19775098118419
-0.00075203766518921
0.19781135696497
-0.00086798659689134
0.19788011573621
-0.00098379647470514
0.19795746898202
-0.001100017505128
0.19804368660075
-0.0012168077894092
0.19813905425091
-0.0013341334721835
0.19824382372109
-0.0014515871888311
0.19835825057383
-0.0015691309452738
0.19848256655988
-0.001686366037012
0.19861707305095
-0.0018037541924523
0.19876201073048
-0.0019205242521206
0.19891771664126
-0.0020375402442924
0.19908430603726
-0.0021527099018303
0.19926208497725
-0.0022680092474071
0.19945089792154
-0.0023790143123291
0.19965113826215
-0.0024910991202065
0.19986227721362
-0.0025950179105243
0.20008516050329
-0.0027040539405717
0.20031851866873
-0.0027974011526489
0.20056433950668
-0.0029061562200217
0.20081951258157
-0.0029823153300705
0.20108859264208
-0.0030975921935966
0.20136445815744
-0.0031426573903055
-0.0032814759778027
0.20165821695721
0.18647454517091
-5.8427857283517e-05
0.18648475558553
-0.00017771721873598
0.18650236712682
-0.00030019849695386
0.18652778567971
-0.00042525441896954
0.1865611981481
-0.00055125904379985
0.1866026026669
-0.00067680994578803
0.18665193261994
-0.00080136762401622
0.18670918325382
-0.00092523723670863
0.1867744745299
-0.001049087756854
0.18684805271274
-0.0011735956941907
0.18693023068017
-0.0012989857631942
0.18702134203667
-0.0014252448351551
0.18712168988568
-0.0015519350444393
0.18723158458296
-0.0016790256492203
0.18735131855303
-0.001806100013823
0.18748125949689
-0.0019336951430736
0.18762172203606
-0.0020609867980567
0.18777311955166
-0.0021889377666026
0.18793564917039
-0.0023152395272181
0.18810969626261
-0.0024420563461562
0.18829519197742
-0.0025645100335542
0.18849261352692
-0.0026885206759299
0.18870153121746
-0.00280393560714
0.18892287788866
-0.0029254006176154
0.1891555241284
-0.0030300473980763
0.18940149061588
-0.0031521227129476
0.189657944042
-0.0032387687614972
0.18992926408637
-0.0033689122429837
0.19020881510892
-0.0034222084176354
-0.0035802187169559
0.19050755784304
0.17600843849756
-6.1417598987363e-05
0.17601783264592
-0.00018711137153883
0.17603412697867
-0.00031649283423117
0.17605774933431
-0.00044887677923917
0.17608890176282
-0.00058241147704215
0.17612759156714
-0.00071549975497073
0.17617376048237
-0.00084753654425864
0.17622741715615
-0.00097889391564895
0.17628870373875
-0.0011103743447929
0.17635789815693
-0.0012427901178865
0.17643535242104
-0.0013764400329805
0.17652144446923
-0.0015113368891993
0.17661652553725
-0.0016470161184727
0.17672095862189
-0.0017834587400034
0.17683509462212
-0.0019202360203034
0.17695936682918
-0.0020579673564457
0.17709416221349
-0.0021957821887129
0.17723997261696
-0.0023347481763699
0.17739707720686
-0.0024723441233694
0.17756594874231
-0.0026109278877147
0.17774660696017
-0.0027451682573782
0.1779396301213
-0.0028815438427807
0.17814468476203
-0.0030089902534076
0.17836283071275
-0.0031435465735704
0.17859303739591
-0.0032602540862485
0.17883748165921
-0.0033965669809794
0.17909341578732
-0.003494702894153
0.17936539557483
-0.0036408920347485
0.17964681083102
-0.0037036236778898
-0.0038824554172824
0.17994904752704
0.1661297148775
-6.4110500085447e-05
0.16613823225777
-0.00019562875570387
0.16615310055656
-0.00033136113701724
0.16617476451275
-0.00047054073951339
0.1662034384268
-0.00061108539526789
0.16623913791672
-0.00075119924917614
0.16628181281229
-0.0008902114442335
0.16633148416271
-0.0010285652706148
0.1663883138128
-0.0011672039995686
0.16645260718142
-0.0013070834913616
0.16652475027013
-0.0014485831267213
0.16660516010451
-0.0015917467287845
0.16669423137385
-0.0017360873932068
0.16679237536825
-0.001881602739953
0.16689999765858
-0.0020278583163289
0.16701759335284
-0.002175563056483
0.16714561883108
-0.0023238076727773
0.167284642225
-0.0024737715760884
0.16743502480827
-0.0026227267123641
0.16759732824395
-0.0027732313289408
0.16777166635133
-0.0029195063701237
0.16795872272117
-0.0030686002176809
0.168158272561
-0.0032085400980167
0.16837150452261
-0.0033567785395743
0.16859750899905
-0.003486258566779
0.16883861925266
-0.0036376772382937
0.16909220814386
-0.0037482917888404
0.16936302403604
-0.0039117079300999
0.16964451308828
-0.0039851127331792
-0.0041863279548644
0.16994838562257
0.15680541271098
-6.6494524392058e-05
0.15681301287368
-0.00020322892201815
0.15682637861168
-0.00034472687869322
0.15684596620764
-0.00049012833916649
0.15687199915019
-0.00063711834152976
0.15690450026049
-0.00078370036321032
0.1569434268967
-0.00092913808420131
0.15698881085281
-0.0010739492305292
0.1570408301696
-0.0012192233202224
0.15709981252901
-0.0013660658547311
0.15716617199112
-0.001514942592924
0.15724035819734
-0.001665932939246
0.15732280316538
-0.0018185323656693
0.15741396044136
-0.0019727600205251
0.1575142846161
-0.002128182495817
0.15762432665325
-0.0022856050984797
0.15774460704062
-0.0024440880650545
0.15787576527978
-0.0026049298201277
0.15801824203922
-0.0027652034765929
0.1581726861626
-0.0029276754568947
0.15833930814259
-0.0030861283544379
0.15851889886145
-0.0032481909404586
0.15871135162595
-0.00340099286605
0.15891798634741
-0.0035634132640488
0.15913803134219
-0.0037063035641537
0.15937396977069
-0.0038736156688847
0.15962333209146
-0.0039976541113802
0.15989103911064
-0.004179414950729
0.16017068823107
-0.0042647618550231
-0.0044898240604725
0.16047418433505
0.14800442069108
-6.8564288794105e-05
0.14801108303005
-0.00020989126462655
0.14802290249196
-0.00035654634419851
0.1480403413746
-0.00050756722526243
0.14806362913584
-0.00066040610605748
0.14809279440688
-0.00081286563737528
0.1481278011924
-0.00096414487267642
0.14816868994284
-0.0011148379837779
0.14821565111982
-0.0012661844999084
0.14826902870699
-0.0014194434445666
0.148329257972
-0.0015751718606206
0.14839681357952
-0.0017334885495369
0.14847215815031
-0.001893876939366
0.14855577975906
-0.0020563816323416
0.14864817501266
-0.0022205777526376
0.1487499424755
-0.002387372564643
0.14886165965654
-0.0025558052494915
0.1489840297931
-0.0027272999600474
0.14911756773673
-0.0028987414234676
0.14926300483399
-0.0030731125571339
0.14942064617487
-0.003243769697959
0.14959139003275
-0.0034189348004586
0.14977524979894
-0.0035848526338248
0.14997368498554
-0.0037618484515419
0.15018607113893
-0.0039186897178295
0.15041504671464
-0.0041025912442157
0.15065831065373
-0.0042409180496319
0.15092093328636
-0.0044420375821611
0.15119672638943
-0.004540554956976
-0.004790795645173
0.15149769797507
0.13969737344958
-7.032048217959e-05
0.13970309605806
-0.00021561387743465
0.13971335717578
-0.00036680746609123
0.13972861959618
-0.00052282964942604
0.13974911529183
-0.0006809018049805
0.13977487708506
-0.00083862743337356
0.13980587474592
-0.00099514253581114
0.13984215505018
-0.0011511182898694
0.13988391681672
-0.0013079462679382
0.13993151365767
-0.0014670402867483
0.1399853951661
-0.0016290533701502
0.14004605253248
-0.0017941459169861
0.14011397206168
-0.0019617964697058
0.14018966718376
-0.0021320767556765
0.14027366957931
-0.002304580149593
0.14036661382553
-0.0024803168123751
0.14046912736806
-0.0026583187936051
0.14058196481422
-0.0028401374077325
0.14070571043734
-0.0030224870479745
0.14084116839403
-0.0032085705148707
0.14098873483699
-0.0033913361415323
0.14114941108796
-0.0035796110513876
0.14132332192129
-0.0037587634663817
0.14151207457033
-0.0039506010988989
0.14171518834933
-0.0041218034943031
0.14193549265791
-0.0043228955493414
0.14217087265864
-0.0044762980462713
0.14242651942037
-0.0046976843393767
0.14269645308385
-0.0048104886161535
-0.0050869514388264
0.14299260888167
0.13185655301617
-7.1768773818557e-05
0.13186135018805
-0.00022041105596642
0.13187006958044
-0.00037552686503804
0.13188316889049
-0.0005359289653068
0.13190087898681
-0.00069861190618379
0.13192323524637
-0.00086098369683609
0.13195021246867
-0.00102211976109
0.13198186140798
-0.0011827672313401
0.13201838516344
-0.0013444700248833
0.13206013979277
-0.0015087949170708
0.13210758241401
-0.0016764959920573
0.13216121143516
-0.0018477749386444
0.13222153073914
-0.0020221157741805
0.13228906762984
-0.0021996136469526
0.13236438357413
-0.0023798960945733
0.13244813313219
-0.0025640663712275
0.13254099036459
-0.0027511760268441
0.1326437401489
-0.0029428871928209
0.13275703849506
-0.0031357853947065
0.13288173920307
-0.0033332712230422
0.13301833746553
-0.0035279344035838
0.13316791608159
-0.003729189666209
0.13333071399688
-0.0039215613794894
0.13350846483533
-0.0041283519339773
0.13370081338309
-0.0043141520375258
0.13391079882529
-0.0045328809857712
0.13413654176024
-0.0047020409745441
0.13438348972936
-0.0049446323012802
0.13464578659752
-0.0050727854774299
-0.0053758367573943
0.13493467192277
0.12445579654409
-7.2918987453756e-05
0.12445969623702
-0.00022431076110731
0.12446691530578
-0.00038274594638159
0.12447789990542
-0.00054691357665067
0.12449287685351
-0.00071358886460693
0.12451188377215
-0.00087999062432602
0.12453490026386
-0.0010451362602483
0.12456197811186
-0.0012098450855859
0.12459331954062
-0.001375811458889
0.12462927555502
-0.0015447509359825
0.12467030480617
-0.0017175252472394
0.12471690442428
-0.0018943745605073
0.12476959135365
-0.0020748027072096
0.12482889358409
-0.0022589158810686
0.12489539829675
-0.0024464008109791
0.12496975718935
-0.0026384252676517
0.12505269389466
-0.0028341127359859
0.12514498903136
-0.0030351823332284
0.12524739100251
-0.0032381873692788
0.12536075048723
-0.0034466307106523
0.12548570844219
-0.0036528923606806
0.12562335178856
-0.0038668330136682
0.12577410862117
-0.0040723182119469
0.12593974821329
-0.004293991524431
0.12612006409293
-0.0044944679139569
0.12631824054042
-0.0047310574284394
0.12653240615395
-0.0049162065819912
0.12676884718347
-0.0051810733239973
0.12702163880713
-0.0053255770946641
-0.0056569291934277
0.12730273124899
0.11747041192428
-7.3787149228878e-05
0.1174734568048
-0.00022735566407031
0.1174792411163
-0.00038853028136627
0.1174881897688
-0.00055586225180637
0.11750052444033
-0.0007259235571574
0.11751628691955
-0.00089575312273193
0.11753546351119
-0.0010643128693189
0.11755810481645
-0.0012324864067776
0.11758440514281
-0.0014021117999772
0.11761470126121
-0.0015750470682219
0.11764944585598
-0.0017522698552509
0.11768912824298
-0.001934056960403
0.11773427567501
-0.0021199501519666
0.11778540708614
-0.0023100473048697
0.11784313251167
-0.0025041262491988
0.11790807612605
-0.0027033688947269
0.11798101593926
-0.0029070525618041
0.11806268153534
-0.0031168479416842
0.11815395291304
-0.0033294587589304
0.11825558698114
-0.0035482647899685
0.11836847695876
-0.0037657823485146
0.11849353359838
-0.0039918896621171
0.11863158677455
-0.0042103713953564
0.11878418014288
-0.0044465848980996
0.11895155101378
-0.0046618387882237
0.11913685523507
-0.0049163616510276
0.11933775867235
-0.0051171100188795
0.11956171661475
-0.0054050312650018
0.1198007477677
-0.0055646082465529
-0.005932604450568
0.12007642302426
0.11087710340928
-7.4405688248537e-05
0.11087936087277
-0.00022961316416175
0.11088380337126
-0.00039297281803364
0.1108908224849
-0.00056288140281721
0.11090064211298
-0.0007357432208204
0.11091331128168
-0.00090842232499013
0.11092882417284
-0.0010798257921394
0.11094722573602
-0.0012508880000171
0.11096869595742
-0.0014235820501979
0.11099355019749
-0.0015999013362272
0.11102222856858
-0.0017809482536619
0.11105520925077
-0.0019670376695429
0.11109302375939
-0.0021577646873403
0.11113617558492
-0.0023531991570402
0.11118528919326
-0.002553239884103
0.11124094673701
-0.0027590264649418
0.11130398024823
-0.0029700860992717
0.11137503470214
-0.0031879024214417
0.11145515956622
-0.0034095836481698
0.11154491860932
-0.0036380238572027
0.11164560385538
-0.0038664676172764
0.11175765612624
-0.0041039419538758
0.11188271917617
-0.0043354344640771
0.11202139376959
-0.0045852595079805
0.11217536294265
-0.0048158079752611
0.11234668398958
-0.0050876827093625
0.11253424743444
-0.005304673472891
0.11274529899785
-0.0056160828362132
0.1129663483584
-0.0057856576151347
-0.0062024924705287
0.11323623636713
0.10465388239112
-7.4822153464499e-05
0.10465546395573
-0.00023119478046462
0.10465867759269
-0.00039618650766335
0.10466388756713
-0.0005680914289184
0.10467132769176
-0.00074318339528144
0.10468107686145
-0.0009181715425499
0.10469314108543
-0.0010918900621954
0.10470754489073
-0.0012652918499499
0.1047244377577
-0.0014404749607275
0.10474411035845
-0.0016195739797881
0.10476698835294
-0.0018038262904648
0.10479354868733
-0.0019935980459335
0.10482432668234
-0.0021885427241491
0.10485981085174
-0.0023886833680637
0.10490061237822
-0.0025940414520511
0.1049472607766
-0.00280567490454
0.1050006061259
-0.0030234314893999
0.10506121626017
-0.0032485125958545
0.10513029850199
-0.0034786659291138
0.10520821089647
-0.0037159362892363
0.10529671990816
-0.0039549766645299
0.10539556279659
-0.0042027848753367
0.10550767721892
-0.0044475489167446
0.1056315806547
-0.0047091629711381
0.10577236291115
-0.0049565902560514
0.10592693203321
-0.0052422518525111
0.10610276395266
-0.0054805054106384
0.10629926876368
-0.00581258766378
0.10651538869587
-0.0060017775641168
-0.0064479605909902
0.10676085679399
0.098779913067874
-7.5017007002721e-05
0.098780928184698
-0.0002322099587936
0.098782973080016
-0.00039823146480836
0.098786540272298
-0.00057165868190164
0.098791745756114
-0.0007483889381849
0.09879879606891
-0.00092522191280411
0.098807712515661
-0.001100806565047
0.098818505998278
-0.0012760853876712
0.098831285840781
-0.0014532548576918
0.098846292920676
-0.0016345811137786
0.098863917206766
-0.0018214506304614
0.098884623377818
-0.0020143042708101
0.098908953832315
-0.002212873232407
0.098937404065027
-0.0024171336544754
0.098970573667353
-0.0026272111079175
0.099008949610705
-0.0028440509011671
0.09905335396003
-0.0030678358914458
0.099104293319745
-0.0032994520073762
0.09916305164996
-0.0035374243095929
0.099229873907115
-0.0037827585944544
0.099306873421343
-0.0040319762238606
0.099393279555721
-0.0042891910513917
0.099493203645177
-0.0045474730441452
0.099603092306703
-0.0048190516668009
0.099732049046394
-0.0050855470259366
0.099869158267928
-0.0053793611001421
0.10003522436807
-0.0056465715333251
0.10020357332386
-0.0059809366403737
0.10041941709556
-0.0062176213581575
0.10066828088756
-0.0066968244122889
0.39442221644479
0.0046626842199497
0.38991760117695
0.0045046152503744
0.38557554869641
0.0043420524629966
0.38140043849157
0.0041751101870463
0.37739651333118
0.004003925142243
0.37356787439437
0.0038286389182642
0.3699184752249
0.0036493991505335
0.36645211376931
0.0034663614362615
0.36317242395995
0.0032796897896653
0.36008286886641
0.0030895550735093
0.35718673560869
0.0028961332374046
0.35448713140212
0.0026996041860172
0.35198698065619
0.0025001507251917
0.3496890237157
0.0022979569196148
0.34759581726471
0.0020932064300428
0.34570973603911
0.0018860812046327
0.34403297502543
0.0016767609927615
0.342567551219
0.0014654237856022
0.34131530428646
0.0012522469118777
0.34027789543283
0.0010374088331425
0.33945680465342
0.00082109075918149
0.33885332518785
0.00060347944560241
0.33846855410727
0.00038477106091549
0.33830335729189
0.00016519679600727
0.33835842199158
-5.5064718719808e-05
0.33863455148236
-0.00027612950951387
0.3391319235263
-0.00049737206235522
0.33985067142517
-0.00071874791699151
0.34079074424531
-0.00094007283796104
0.34195189454455
-0.0011611503168068
0.34333367454301
-0.0013817800157442