/*--------------------------------*- C++ -*----------------------------------*\
| =========                 |                                                 |
| \\      /  F ield         | OpenFOAM: The Open Source CFD Toolbox           |
|  \\    /   O peration     | Version:  2112                                  |
|   \\  /    A nd           | Website:  www.openfoam.com                      |
|    \\/     M anipulation  |                                                 |
\*---------------------------------------------------------------------------*/
FoamFile
{
    version     2.0;
    format      ascii;
    arch        "LSB;label=32;scalar=64";
    class       surfaceScalarField;
    location    "11.1";
    object      phi;
}
// * * * * * * * * * * * * * * * * * * * * * * * * * * * * * * * * * * * * * //

dimensions      [0 3 -1 0 0 0 0];

oriented        oriented;

internalField   nonuniform List<scalar> 
43645
(
0.39512359921931
-4.7260996420244e-06
0.39513773801175
-1.4138725760775e-05
0.39516134058305
-2.3602499161198e-05
0.39519445778793
-3.3117130319072e-05
0.39523709689508
-4.2639032233635e-05
0.39528921867226
-5.2121702961637e-05
0.39535075876084
-6.1540015727533e-05
0.39542164409366
-7.0885261520768e-05
0.39550179549607
-8.0151332883583e-05
0.39559112979974
-8.9334235856343e-05
0.39568955405863
-9.8424192913784e-05
0.39579696925964
-0.00010741513674715
0.39591325816318
-0.00011628884110341
0.39603829669203
-0.00012503846804034
0.39617193086143
-0.00013363411031108
0.39631400908534
-0.00014207816630833
0.39646433347108
-0.0001503243296865
0.39662273598256
-0.0001584024567044
0.39678896518561
-0.00016622914960547
0.39696286004772
-0.00017389480967641
0.3971440880149
-0.00018122791581482
0.39733254461681
-0.00018845655127172
0.3975277493154
-0.00019520464876084
0.39772976190949
-0.00020201254471292
0.39793778924768
-0.00020802728937038
0.3981522886953
-0.00021449939899857
0.39837176802675
-0.00021947928316653
0.3985976223741
-0.000225854299709
0.39882679467944
-0.00022917225881488
-0.00023606148656031
0.39906285621322
0.37294698714179
-9.1584002320342e-06
0.37296035034852
-2.7501824017756e-05
0.3729828086709
-4.6060711049672e-05
0.37301441250013
-6.4720849151232e-05
0.37305516802165
-8.3394444754852e-05
0.37310504585183
-0.00010199942603183
0.37316399945241
-0.00012049351147155
0.37323197506393
-0.0001388607704516
0.37330890960242
-0.00015708577123494
0.37339473116678
-0.00017515570239947
0.37348935434111
-0.00019304727191845
0.3735926862504
-0.00021074695300348
0.37370461672033
-0.00022821922045121
0.3738250308218
-0.00024545248110655
0.3739537858601
-0.00026238906249637
0.37409074278016
-0.00027903500219566
0.37423571679527
-0.00029529826266305
0.37438855287772
-0.00031123845863793
0.3745490129891
-0.00032668918217293
0.37471694941356
-0.00034183115657171
0.37489204398018
-0.00035632240623048
0.37507420547631
-0.0003706179720528
0.37526296815615
-0.00038396725425576
0.37545840246255
-0.00039744677728045
0.3756597313215
-0.00040935607517183
0.37586741857894
-0.00042218658348668
0.37607999877215
-0.00043205940386391
0.37629886959704
-0.00044472505302907
0.37652103401634
-0.00045133660915337
-0.00046511298797985
0.37675008558856
0.3520152934103
-1.3554178492368e-05
0.35202848539943
-4.0693699538547e-05
0.35205055832111
-6.8133518703973e-05
0.35208155357209
-9.5715987320881e-05
0.35212147926458
-0.00012332002666334
0.35217032126144
-0.00015084131474739
0.35222805711065
-0.00017822925530933
0.35229465853763
-0.00020546209468599
0.352370082788
-0.00023250992173922
0.35245427070481
-0.0002593435219958
0.35254714302979
-0.00028591950259563
0.35264861087528
-0.00031221470677046
0.35275856888014
-0.00033817713640405
0.35287691127483
-0.00036379478929688
0.35300350663235
-0.00038898433610895
0.35313823100596
-0.00041375929396508
0.35328091196088
-0.00043797913798136
0.35343141084425
-0.00046173726405857
0.35358949857311
-0.00048477683488555
0.35375504681644
-0.00050737932493412
0.35392774055049
-0.00052901606664892
0.35410751485316
-0.00055039220178157
0.35429389114207
-0.00057034347114101
0.35448697889875
-0.00059053446216058
0.35468595193657
-0.00060832904170752
0.35489134741463
-0.00062758199011504
0.35510157751847
-0.00064228943645654
0.35531820088049
-0.00066134834433382
0.355537938552
-0.00067107421244206
-0.00069189423013226
0.3557647198649
0.33225840208889
-1.7912212208444e-05
0.332271485253
-5.3776762296464e-05
0.33229336019978
-9.0008363611614e-05
0.33232404582777
-0.00012640151439241
0.33236354423226
-0.00016281833213811
0.33241185826218
-0.00019915524775142
0.33246899643399
-0.00023536733267067
0.33253496339073
-0.00027142895928362
0.33260974206287
-0.00030728850434143
0.33269328884144
-0.00034289021340914
0.33278553136065
-0.00037816193729641
0.33288638494169
-0.00041306820564393
0.33299574941704
-0.00044754153217161
0.33311353000538
-0.00048157530021036
0.33323960865958
-0.00051506291526245
0.33337388009341
-0.00054803065459443
0.33351618620481
-0.00058028517821447
0.3336664086389
-0.00061195962843121
0.33382432740579
-0.00064269553369777
0.33398983862643
-0.00067289047849476
0.33416262728368
-0.00070180465803916
0.33434266281084
-0.00073042766363871
0.3345294428932
-0.00075712348901462
0.33472313073234
-0.00078422223696501
0.33492282408501
-0.00080802233051266
0.33512916743623
-0.00083392527727717
0.33534039547144
-0.00085351740778275
0.33555831699901
-0.00087926980852787
0.33577926598849
-0.00089202314085221
-0.00092038759322817
0.33600775941521
0.31361039838189
-2.2253127967292e-05
0.31362343765189
-6.6815940859738e-05
0.31364522859693
-0.00011179921707129
0.31367577007941
-0.00015694290642292
0.31371505907938
-0.00020210724365111
0.31376311840854
-0.00024721449059141
0.31381999302601
-0.00029224186630768
0.31388572690113
-0.00033716275290525
0.31396033421049
-0.00038189573482239
0.31404379094017
-0.00042634686658579
0.3141360342715
-0.00047040519478414
0.31423698606275
-0.00051401992534188
0.31434655380375
-0.00055710920416691
0.31446465726767
-0.0005996786971921
0.31459119556686
-0.00064160114979156
0.31472608700743
-0.00068292203221784
0.31486919158916
-0.0007233896989003
0.31502041663828
-0.0007631846177642
0.31517955372073
-0.00080183255781955
0.31534652988371
-0.00083986658390942
0.3155210301785
-0.0008763048962704
0.3157030677187
-0.00091246514756336
0.31589211091187
-0.00094616662647346
0.31608839223905
-0.00098050350826859
0.31629091532262
-0.0010105453583877
0.31650046260086
-0.0010434724992858
0.31671504596447
-0.0010681007150084
0.31693678875458
-0.0011010125423336
0.31716152853703
-0.0011167628687631
-0.0011533612983421
0.31739450229965
0.29600903184584
-2.6583033915424e-05
0.29602204689486
-7.9830905230017e-05
0.29604378584506
-0.00013353808260898
0.29607422771753
-0.00018738469528233
0.29611336614717
-0.00024124559153536
0.29616124783538
-0.00029509609893108
0.29621795958614
-0.00034895353944619
0.29628359052219
-0.0004027936134073
0.29635819133585
-0.00045649647534844
0.29644176198389
-0.0005099174436025
0.2965342527389
-0.00056289588124117
0.29663559546062
-0.00061536258057597
0.29674570898321
-0.0006672226626539
0.29686453230773
-0.00071850195949021
0.29699198667682
-0.00076905545880924
0.2971280200383
-0.00081895533521083
0.29727251578444
-0.00086788538836515
0.29742541366973
-0.00091608244756203
0.29758652135799
-0.00096294019200609
0.2977558046688
-0.0010091498413869
0.29793295144169
-0.0010534516168311
0.29811802855273
-0.0010975422065942
0.29831047306617
-0.0011386110885211
0.29851060130408
-0.0011806316947056
0.29871730968777
-0.0012172536908671
0.29893154394667
-0.0012577067065697
0.29915105698337
-0.0012876137000851
0.29937833916028
-0.0013282946678034
0.29960864824557
-0.0013470719043296
-0.0013927670635319
0.29984805406344
0.27939554470792
-3.0893150331541e-05
0.27940851113657
-9.2797258263156e-05
0.27943015803431
-0.00015518490489478
0.27946044474847
-0.00021767133505934
0.27949936309285
-0.00028016386330481
0.27954698697738
-0.00034271991261559
0.27960344953742
-0.00040541603077061
0.27966888994622
-0.00046823395540644
0.27974340012463
-0.00053100658923402
0.27982700838908
-0.00059352564550811
0.27991968221294
-0.00065556964485969
0.28002136776773
-0.0007170480770252
0.28013199986624
-0.00077785470506109
0.28025154223116
-0.00083804427001364
0.2803799440632
-0.00089745723845407
0.28051718977046
-0.00095620099147556
0.28066319254047
-0.001013888109057
0.28081793229935
-0.001070822158132
0.28098123895618
-0.0011262468018085
0.28115312600521
-0.0011810368439718
0.28133328896384
-0.001233614529882
0.2815218593716
-0.0012861125689283
0.281718244233
-0.0013349959049794
0.28192285847022
-0.0013852458867492
0.28213448414451
-0.0014288793201043
0.28235425439864
-0.0014774769150872
0.2825796385499
-0.0015129978056187
0.28281354066832
-0.001562196740461
0.28305057771634
-0.0015841089079731
-0.0016399400468726
0.28329775074716
0.26371447966143
-3.5163296503273e-05
0.26372733868208
-0.00010565620996493
0.26374879671723
-0.00017664287128325
0.26377879410761
-0.00024766865757285
0.26381732230231
-0.0003186919916621
0.26386448495995
-0.0003898825053899
0.26392046486234
-0.0004613958701293
0.26398545498668
-0.00053322401832111
0.26405959244002
-0.00060514398312932
0.26414293803559
-0.00067687118330478
0.26423548077334
-0.0007481123268886
0.26433718587606
-0.0008187531256779
0.26444800929798
-0.00088867807490941
0.26456794537809
-0.00095798029956453
0.264696977584
-0.001026489395648
0.26483513399044
-0.0010943573504503
0.26498236477246
-0.0011611188451977
0.26513869844825
-0.0012271557889756
0.26530399470997
-0.001291543019838
0.26547832452712
-0.0013553666180252
0.26566139814149
-0.0014166881020627
0.26585342347833
-0.001478137863811
0.26605378219616
-0.001535354581454
0.26626300286188
-0.0015944665110147
0.26647975201335
-0.0016456284304485
0.26670537258691
-0.0017030974471657
0.26693703624904
-0.0017446614263795
0.26717810012432
-0.0018032605745379
0.26742249913937
-0.0018285078832482
-0.0018956806089401
0.2676782397441
0.24891349448647
-3.9365035109879e-05
0.24892616184322
-0.00011832350559352
0.24894729210138
-0.00019777306851669
0.2489768077473
-0.00027718424335073
0.24901470127876
-0.00035658546432939
0.24906110779787
-0.00043628896696492
0.24911626172075
-0.00051654973706952
0.24918041221234
-0.00059737445533809
0.24925374450723
-0.00067847622519227
0.24933635547874
-0.00075948210340216
0.24942825985237
-0.00084001665092075
0.24952944665851
-0.00091993988362342
0.24963989829913
-0.00099912966911
0.24975964555119
-0.0010777275064866
0.24988871255635
-0.0011555563573073
0.25002717810121
-0.0012328228528942
0.25017503696067
-0.0013089776636395
0.25033237470629
-0.001384493494369
0.2504990894288
-0.0014582577032618
0.25067531960979
-0.0015315967603887
0.25086079927405
-0.001602167728532
0.25105582473893
-0.0016731632910619
0.2512597609038
-0.0017392907092368
0.25147326446235
-0.0018079700323369
0.25169489202668
-0.0018672559578641
0.25192621484984
-0.0019344202330611
0.25216410384268
-0.0019825503820926
0.25241239825795
-0.002051554952832
0.25266433183513
-0.0020804414247291
-0.002160317022451
0.25292896828716
0.23494318710117
-4.3464524074252e-05
0.23495556148991
-0.00013069783915107
0.23497619709962
-0.00021840862319625
0.23500500004222
-0.00030598713151632
0.23504196511161
-0.00039355048039891
0.23508725959726
-0.00048158340025368
0.23514117009499
-0.00057046018375974
0.2352040027817
-0.00066020709207657
0.23527599271658
-0.00075046611154636
0.23535727548065
-0.00084076482007627
0.23544789525911
-0.00093063638352421
0.2355478691846
-0.0010199137644042
0.23565721119828
-0.0011084716396112
0.23577599366356
-0.0011965099296686
0.23590428762414
-0.0012838502772281
0.23604222866371
-0.001370763852735
0.23618986409006
-0.0014566130515313
0.23634734389514
-0.0015419732617086
0.23651461441827
-0.0016255281897204
0.23669189031183
-0.0017088726177528
0.23687894090845
-0.0017892182897807
0.23707616077883
-0.0018703831263072
0.23728291200746
-0.0019460419033466
0.23749998965002
-0.0020250476403743
0.23772585903809
-0.0020931253118608
0.2379623293235
-0.0021708904842385
0.2382059870152
-0.0022262080398996
0.23846116782123
-0.0023067357252887
0.23872039436113
-0.0023396679323898
-0.0024337420903022
0.23899381946378
0.22175693052228
-4.7425209891322e-05
0.22176890162288
-0.00014266889055555
0.22178886121558
-0.00023836816679644
0.22181670068827
-0.00033382655557286
0.22185241807164
-0.00042926781602828
0.22189621250533
-0.00052537778694985
0.22194842177716
-0.00062266940965971
0.22200940821216
-0.00072119348197991
0.22207945698937
-0.00082051484484293
0.22215874383709
-0.00092005162477658
0.22224734538686
-0.0010192378915424
0.22234531024456
-0.0011178785812707
0.22245268847424
-0.001215849829743
0.22256959785513
-0.0013134192718763
0.22269616226127
-0.0014104146459272
0.22283257814416
-0.0015071796989404
0.22297895402632
-0.0016029888981255
0.22313550860152
-0.00169852780193
0.22330224931671
-0.0017922688708912
0.22347947039842
-0.0018860936658328
0.22366699466481
-0.0019767425233245
0.22386531515157
-0.002068703580408
0.224073818364
-0.0021545450837265
0.22429342773756
-0.0022446569818908
0.22452256520072
-0.0023222627434397
0.22476324915585
-0.002411574407684
0.22501185977376
-0.0024748186265351
0.22527320357199
-0.0025680794926208
0.22553915836329
-0.0026056226940665
-0.002715468611983
0.22582088491702
0.20931071694874
-5.1210166673973e-05
0.20932217257449
-0.00015412447179092
0.20934127263021
-0.00025746817801011
0.20936789532547
-0.00036044920662636
0.20940204231742
-0.00046341476446527
0.20944394310673
-0.00056727853326404
0.20949398411842
-0.00067271037920645
0.20955258127453
-0.0007797905965258
0.20962006863934
-0.00088800216903324
0.20969666218458
-0.00099664513004897
0.20978247289868
-0.0011050485667225
0.20987758307464
-0.0012129887189989
0.20998208249429
-0.001320349212234
0.21009613660785
-0.0014274733489658
0.21021992721695
-0.0015342052196148
0.21035371319128
-0.0016409656384721
0.21049767363748
-0.0017469493105182
0.21065209533938
-0.0018529494705414
0.21081706497472
-0.0019572384738275
0.21099294900167
-0.0020619776607504
0.21117965670945
-0.0021634501998425
0.21137775766383
-0.0022668045037432
0.21158672396198
-0.0023635113514696
0.21180754201674
-0.0024654750063347
0.21203874038708
-0.0025534610839961
0.21228231014816
-0.0026551441390083
0.21253484768038
-0.0027273561295006
0.21280102243592
-0.0028342542193906
0.21307287753277
-0.0028774777634386
-0.0030047796938007
0.21336218864431
0.1975630109649
-5.4784563636373e-05
0.19757384313328
-0.00016495659978641
0.19759190873475
-0.00027553373900805
0.1976170737302
-0.00038561416177365
0.19764934319956
-0.00049568419405278
0.1976889744574
-0.00060690975169027
0.19773639846164
-0.00072013434468032
0.19779208060921
-0.00083547270572624
0.19785640093032
-0.00095232245253569
0.19792961446282
-0.0010698586253959
0.19801186694726
-0.0011873010148456
0.19810327560556
-0.0013043973414842
0.19820397158436
-0.0014210451561068
0.19831416954641
-0.0015376712766058
0.19843411114034
-0.001654146780022
0.19856411972445
-0.0017709741895432
0.19870444888253
-0.0018872784364329
0.1988554565263
-0.0020039570825672
0.19901731775696
-0.00211909967356
0.19919047117278
-0.0022351310459706
0.19937493529482
-0.0023479142920056
0.19957134174347
-0.0024632109227473
0.19977929900627
-0.0025714685852478
0.19999981850142
-0.0026859944725908
0.20023161808626
-0.0027852606404838
0.2004766013741
-0.0029001273985755
0.20073173834207
-0.002982493069737
0.20100126367803
-0.0031037795281287
0.20127814146595
-0.0031543555253929
-0.0033003566344028
0.20157371843469
0.18647461066988
-5.8117828651383e-05
0.1864847225887
-0.00017506848133722
0.18650159708633
-0.00029240819920333
0.18652508816982
-0.00040910520787264
0.18655520386613
-0.00052579985337268
0.18659222616631
-0.00064393201510395
0.1866366253224
-0.0007645334645181
0.18668891068296
-0.00088775803030401
0.18674950375412
-0.0010129154883252
0.1868186960909
-0.0011390509271236
0.18689666699029
-0.0012652718798596
0.18698356860159
-0.0013912989187595
0.18707957313203
-0.0015170496532597
0.18718494480183
-0.0016430429134895
0.18729998405923
-0.0017691860052599
0.18742508052391
-0.0018960706224442
0.18756056073234
-0.0020227586138491
0.18770686050319
-0.0021502568227761
0.18786424003494
-0.0022764791754239
0.18803322550779
-0.0024041164892744
0.18821393737698
-0.0025286261323527
0.18840709588956
-0.0026563694067639
0.18861243388918
-0.0027768065569413
0.18883103673681
-0.0029045972924929
0.18906176494749
-0.0030159888240024
0.18930658839366
-0.0031449508177326
0.18956262712757
-0.0032385317771821
0.18983411998762
-0.0033752723622639
0.1901143888018
-0.0034346243148391
-0.0036005911639631
0.19041462335822
0.17600851493942
-6.1183975614543e-05
0.1760178275525
-0.00018438105955767
0.17603337980649
-0.00030796041808936
0.17605501544551
-0.00043074081177872
0.17608274483261
-0.00055352920568131
0.17611687056829
-0.00067805771616228
0.17615789591095
-0.00080555877301877
0.17620636756125
-0.00093622964665999
0.17626274301956
-0.0010692909132187
0.17632734651132
-0.0012036543857407
0.17640038841507
-0.0013383137510275
0.17648205419728
-0.0014729646686721
0.17657255532641
-0.0016075507506851
0.1766722037153
-0.0017426912709589
0.1767813561088
-0.0018783383679608
0.17690046680496
-0.0020151812881065
0.17702993333151
-0.0021522251105754
0.17717027060251
-0.0022905940642932
0.17732182258703
-0.0024280311311579
0.17748521047167
-0.0025675043454863
0.17766065163488
-0.0027040672678335
0.17784897695545
-0.0028446946999487
0.17805002571284
-0.0029778552876005
0.17826500675677
-0.0031195783099567
0.17849288430279
-0.0032438663441335
0.17873577936884
-0.0033878458580895
0.17899087454533
-0.0034936269284963
0.17926262954709
-0.0036470273393848
0.17954434202281
-0.0037163367669582
-0.0039038453112634
0.17984759619587
0.16612980109071
-6.3963055587911e-05
0.16613825418287
-0.00019283411856838
0.16615238277397
-0.00032208897577617
0.16617202221461
-0.00045038021901313
0.16619718454326
-0.00057869150126911
0.16622818849102
-0.0007090616310841
0.16626556324491
-0.00084293349457385
0.16630988514358
-0.00098055151329821
0.16636164100625
-0.0011210467444174
0.16642118286732
-0.0012631962156499
0.16648874882932
-0.0014058796824347
0.16656455463982
-0.001548770448827
0.16664884782714
-0.0016918439082011
0.16674198409563
-0.0018358275098617
0.16684437230318
-0.0019807265464575
0.16695652698386
-0.0021273359399814
0.16707891329921
-0.00227461139771
0.16721212194142
-0.0024238026786132
0.16735658001287
-0.0025724891753992
0.16751300208197
-0.0027239263877735
0.16768170553858
-0.0028727706983543
0.16786363296292
-0.0030266220986305
0.16805873683258
-0.0031729591323083
0.16826835558622
-0.003329197039019
0.16849156913203
-0.0034670798659541
0.16873065856192
-0.0036269352642562
0.16898290585691
-0.0037458742002122
0.16925298494701
-0.0039171064066672
0.16953423129505
-0.003997583092984
-0.00420814585193
0.16983853186
0.15680550730977
-6.6441645804214e-05
0.15681306006983
-0.0002003868466488
0.15682569540163
-0.00033472427543762
0.15684324193256
-0.00046792671797713
0.1568657125547
-0.00060116209196713
0.15689343727605
-0.0007367863214497
0.15692696370001
-0.00087645988827285
0.15696688958033
-0.0010204773639132
0.15701372385216
-0.0011678809873232
0.15706784053363
-0.0013173128686846
0.15712950095691
-0.0014675400779675
0.15719894705542
-0.0016182165199294
0.15727645807505
-0.0017693549009541
0.15736242788186
-0.001921797290012
0.15745731150576
-0.0020756101441783
0.15756167709039
-0.0022317014986538
0.15767605174275
-0.0023889860246323
0.15780109610977
-0.0025488470205199
0.15793731665172
-0.002708709692884
0.15808551697507
-0.0028721266871372
0.15824611420188
-0.0030333679019485
0.15842016041175
-0.003200668285833
0.15860772827963
-0.0033605269782926
0.15881028476163
-0.0035317534996351
0.15902704226043
-0.0036838373440051
0.15926043563519
-0.0038603286185719
0.15950788183734
-0.0039933203822949
0.15977425774676
-0.004183482296283
0.16005302498465
-0.0042763503114968
-0.0045113594291852
0.16035623858374
0.14800452216309
-6.8612849865808e-05
0.14801115313599
-0.00020701778795673
0.14802225769478
-0.00034582880270128
0.14803765929345
-0.00048332828570256
0.14805737065288
-0.00062087342144256
0.14808172795383
-0.00076114359341345
0.14811128956172
-0.00090602146839446
0.14814666620497
-0.0010558539804431
0.14818838156565
-0.001209596322492
0.14823682534593
-0.0013657566243294
0.14829227715459
-0.0015229918629262
0.14835499973439
-0.0016809390765848
0.14842529871437
-0.0018396538584024
0.14850359910818
-0.0020000976615777
0.14859039505096
-0.0021624060651707
0.14868629949749
-0.0023276059236068
0.14879189419819
-0.0024945807042359
0.14890790123913
-0.0026648540406941
0.14903490008424
-0.002835708517888
0.14917377582444
-0.0030110024077835
0.14932504083039
-0.0031846328891826
0.14948985117626
-0.0033654786136811
0.149668402213
-0.0035390779979163
0.14986229042994
-0.0037256417001131
0.15007087578012
-0.0038924226784447
0.15029674880378
-0.0040862016268677
0.15053746756221
-0.0042340391256363
0.15079810358164
-0.0044441183006275
0.15107227357636
-0.0045505202909645
-0.0048112481884253
0.15137216235358
0.13969748026193
-7.0475821877578e-05
0.13970318640216
-0.0002127238950388
0.13971275343039
-0.00035539579805933
0.13972600113948
-0.00049657596321854
0.13974294089358
-0.00063781314580029
0.13976390977934
-0.00078211245127988
0.13978946937085
-0.00093158103406665
0.13982023493167
-0.0010866195172608
0.13985673776836
-0.0012460991370481
0.13989937680006
-0.0014083956353429
0.13994844508451
-0.0015720601280285
0.14000421987425
-0.0017367138478303
0.14006702759914
-0.0019024615655933
0.14013731512075
-0.0020703851658962
0.14021560860217
-0.002240699529754
0.14030255427446
-0.0024145515793093
0.140398781655
-0.0025908080686484
0.14050506171077
-0.0027711340807183
0.14062204125954
-0.0029526880515768
0.14075067356535
-0.0031396346991782
0.14089156159717
-0.003325520907531
0.14104595193703
-0.0035198689409776
0.14121415896363
-0.0037072850130084
0.14139790369169
-0.0039093864175685
0.1415966983561
-0.0040912173331155
0.14181333295777
-0.004302836219303
0.14204548849683
-0.0044661946556739
0.14229850055385
-0.0046971303483186
0.1425659976531
-0.0048180173800117
-0.0051054006412193
0.1428601501192
0.13185666340254
-7.2034460213227e-05
0.13186145732795
-0.00021751778104152
0.13186950812455
-0.00036344655528891
0.131880632949
-0.00050770075041429
0.13189483979989
-0.00065201996244043
0.13191246129713
-0.00079973391737623
0.13193405520142
-0.00095317491040668
0.13196023329697
-0.0011127975877461
0.13199152794205
-0.0012773937597497
0.13202834082396
-0.0014452084970072
0.13207097420178
-0.0016146934874298
0.13211971281167
-0.0017854524405292
0.13217489902958
-0.0019576477673083
0.13223698994592
-0.0021324760666148
0.13230653793704
-0.0023102475057776
0.13238420610842
-0.0024922197359249
0.13247066888635
-0.0026772708322996
0.13256672472763
-0.0028671899082052
0.13267309020524
-0.0030590535161686
0.13279075898469
-0.0032573034664623
0.13292043305876
-0.0034551949705932
0.13306342016583
-0.0036628560382497
0.13322015564525
-0.0038640204839949
0.13339246924653
-0.0040817000116763
0.13357997920742
-0.0042787272880229
0.13378574238666
-0.0045085993933649
0.13400753088013
-0.0046879831442885
0.13425114887246
-0.0049407483353208
0.13451023263346
-0.0050771011342045
-0.0053913846252615
0.13479621662785
0.12445590865302
-7.3296727971234e-05
0.12445981464416
-0.00022142371751624
0.12446639368198
-0.00037002553714947
0.1244754612382
-0.00051676825315476
0.12448701950727
-0.00066357818216054
0.12450139057358
-0.00081410493880823
0.12451912074349
-0.00097090503986822
0.12454081081456
-0.0011344876223431
0.12456698909629
-0.0013035720085164
0.12459805483344
-0.0014762742039971
0.12463431600548
-0.0016509546315824
0.1246760572859
-0.0018271936946617
0.12472363230063
-0.002005222756982
0.12477749435266
-0.0021863380943581
0.12483821882816
-0.0023709719576911
0.12490646442784
-0.0025604653125134
0.12498295544536
-0.0027537618273991
0.12506848311306
-0.0029527175542161
0.12516385276473
-0.0031544231471971
0.12527004061146
-0.003363491293803
0.12538788825184
-0.0035730425931728
0.12551869010921
-0.0037936578795959
0.12566305993612
-0.0040083902968141
0.12582288022396
-0.0042415202873301
0.12599786557536
-0.0044537126290451
0.12619128929006
-0.0047020230991423
0.12640085986651
-0.0048975537126812
0.12663311149562
-0.0051729999561798
0.12688190522311
-0.005325894851928
-0.0056681709281136
0.12715869153975
0.11747052475544
-7.4277636530653e-05
0.11747358031425
-0.0002244791936695
0.11747875299201
-0.00037519812908141
0.11748585590602
-0.00052387108370395
0.11749488625391
-0.00067260845141285
0.11750615166076
-0.00082537027247234
0.11752017810276
-0.0009849314140889
0.11753754628003
-0.0011518557366117
0.1175587756768
-0.0013248013463833
0.11758426019414
-0.0015017586656821
0.11761431154516
-0.0016810059295343
0.11764920901442
-0.0018620911127222
0.11768931175988
-0.0020453254527133
0.11773505444711
-0.0022320807329069
0.11778703095989
-0.0024229484227416
0.11784587277194
-0.0026193070776877
0.11791236452671
-0.0028202535362992
0.11798724737498
-0.0030276003578477
0.11807145450409
-0.0032386302332393
0.11816585055438
-0.0034578873030231
0.11827151327715
-0.0036787052772686
0.11838954235026
-0.0039116869168097
0.11852093263198
-0.0041397805455408
0.11866736465771
-0.0043879522830535
0.11882896432294
-0.0046153122671101
0.11900901595908
-0.0048820747107772
0.11920485334627
-0.0050933910774115
0.11942389647736
-0.0053920430657784
0.11965832879232
-0.005560327144871
-0.0059384423255764
0.11992860021642
0.11087721083492
-7.5003471491982e-05
0.11087947782477
-0.00022674606234842
0.11088334221142
-0.00037906238992744
0.11088860670252
-0.00052913545133075
0.11089526357809
-0.00067926520877985
0.11090360251133
-0.00083370909350475
0.1109141244964
-0.00099545329277371
0.11092738516758
-0.0011651163064502
0.11094389190987
-0.0013413079915677
0.11096403316072
-0.0015218998227212
0.11098812238107
-0.0017050950587244
0.11101643044613
-0.0018903990885896
0.11104931285724
-0.0020782077762829
0.11108717591064
-0.0022699437000537
0.11113062309664
-0.0024663955238253
0.11118024499602
-0.0026689288934106
0.11123688839527
-0.0028768968535162
0.11130120994864
-0.0030919218310459
0.1113743051613
-0.0033117253682824
0.11145682334564
-0.0035404054127954
0.11155022086508
-0.0037721027259876
0.11165510649143
-0.0040165724766398
0.11177328342802
-0.0042579574201816
0.11190549007704
-0.0045201588745548
0.11205331868381
-0.004763140820879
0.11221891506809
-0.0050476710465093
0.11240103977369
-0.0052755157386416
0.11260664384341
-0.0055976470942227
0.11282288761344
-0.0057765708751858
-0.0062016771311469
0.11308612246332
0.10465396784279
-7.5505205727414e-05
0.10465552865707
-0.00022830671459561
0.10465819940511
-0.00038173297289122
0.10466179171963
-0.00053272760369802
0.10466628058049
-0.0006837539128451
0.10467191115534
-0.00083933951746487
0.10467914530466
-0.0010026872967252
0.10468851567823
-0.0011744865393305
0.10470052586537
-0.0013533180417843
0.10471557954676
-0.0015369533701402
0.1047340040256
-0.0017235194059129
0.10475605785135
-0.0019124527845916
0.10478207040992
-0.0021042202067454
0.10481240710244
-0.0023002802660646
0.10484765824101
-0.0025016465374625
0.10488838046807
-0.0027096509974348
0.10493546452781
-0.0029239807923977
0.10498949197538
-0.0031459491606974
0.10505169530177
-0.0033739285804122
0.10512246980289
-0.0036111798045301
0.10520370911964
-0.0038533419390204
0.105295272061
-0.0041081353208667
0.10540030927986
-0.0043629945484937
0.10551738985561
-0.0046372393664105
0.10565175577563
-0.0048975066635953
0.10580009651755
-0.0051960117181705
0.10597008464991
-0.0054455038076082
0.10616052317106
-0.0057880855579539
0.10637103976035
-0.0059870874112924
-0.0064412532247277
0.10661061591257
0.098779982225038
-7.5768990881729e-05
0.098780905903334
-0.00022923020377931
0.098782416787883
-0.00038324366698222
0.09878448622474
-0.00053479685328013
0.098787051221379
-0.00068631872701921
0.098790286395259
-0.00084257451380818
0.09879459741838
-0.0010069981466741
0.098800477594507
-0.0011803665456907
0.098808434313899
-0.0013612745940061
0.098818871785607
-0.0015473906765144
0.098832120008055
-0.0017367674645267
0.098848438879993
-0.0019287714938904
0.098868136699537
-0.0021239178649516
0.098891539430811
-0.0023236828372819
0.098919200641455
-0.0025293075897414
0.098951647559146
-0.0027420977587063
0.098989790112992
-0.0029621231926428
0.099034190159596
-0.0031903490573791
0.09908617439325
-0.0034259126694611
0.099145986305601
-0.0036709915790773
0.099215806194395
-0.0039231616985799
0.099294878937165
-0.0041872079437382
0.099387563916044
-0.0044556794172109
0.09949020426617
-0.0047398796157757
0.099612384841078
-0.0050196871473151
0.099742622824882
-0.0053262496209565
0.099902391070295
-0.005605271982163
0.10006403231411
-0.0059497267390821
0.10027346013606
-0.006196515174772
0.10051834977697
-0.0066861428029306
0.39440163844332
0.004661217817117
0.38989876607749
0.0045028724118376
0.38555870552877
0.0043400605941545
0.38138579884684
0.0041729067275031
0.37738424879415
0.0040015500984729
0.37355812120135
0.0038261276391969
0.36991133757485
0.003646783673354
0.36644766597584
0.0034636716466205
0.36317071572908
0.0032769502948668
0.36008393322792
0.0030867825500671
0.35719059749996
0.0028933357773146
0.35449381523019
0.0026967823199163
0.35199651576195
0.0024972995187896
0.34970144564274
0.0022950701704885
0.34761116306512
0.0020902826292275
0.3457280323629
0.0018831307545162
0.34405421957883
0.0016738128365926
0.34259168907341
0.0014625305585786
0.34134220187516
0.0012494872515621
0.34030731523402
0.0010348866950589
0.33948838357279
0.00081893171525053
0.33888655856519
0.00060182506222106
0.33850278622114
0.00038377239876258
0.33833777880805
0.00016500746842969
0.33839205104954
-5.4272186044093e-05
0.33866626951284
-0.00027421840719918
0.33916045121037
-0.00049418164131428
0.33987457529308
-0.00071412402584698
0.34080843721442
-0.00093386186439015
0.34196163604155
-0.0011531987696048
0.34333357287319