/*--------------------------------*- C++ -*----------------------------------*\
| =========                 |                                                 |
| \\      /  F ield         | OpenFOAM: The Open Source CFD Toolbox           |
|  \\    /   O peration     | Version:  2112                                  |
|   \\  /    A nd           | Website:  www.openfoam.com                      |
|    \\/     M anipulation  |                                                 |
\*---------------------------------------------------------------------------*/
FoamFile
{
    version     2.0;
    format      ascii;
    arch        "LSB;label=32;scalar=64";
    class       volScalarField;
    location    "7";
    object      p;
}
// * * * * * * * * * * * * * * * * * * * * * * * * * * * * * * * * * * * * * //

dimensions      [0 2 -2 0 0 0 0];

internalField   nonuniform List<scalar> 
22000
(
0.031649617768592
0.031628705066151
0.031585340688467
0.031518507838831
0.031427708233831
0.031312989451235
0.031174644319656
0.031012960802175
0.030828158887131
0.030620433281405
0.030389992173747
0.030137072526742
0.029861935423297
0.02956486901956
0.029246176327303
0.028906189972365
0.02854525571027
0.028163766973987
0.027762119616744
0.027340779794614
0.026900179688028
0.02644086611542
0.025963271183103
0.025468044437374
0.024955555973532
0.024426630743523
0.023881469688577
0.023321240072383
0.022745719489031
0.022156705403278
0.032043173207802
0.032021080747372
0.031976212284997
0.031907671128503
0.031814921830449
0.031697941165775
0.031556975424997
0.031392294949315
0.03120411357968
0.030992614203817
0.030757981986111
0.030500428338873
0.030220191897989
0.029917547411602
0.029592788770875
0.029246247506835
0.02887826412662
0.028489231317391
0.028079529928937
0.0276496216108
0.027199913300544
0.026730957621057
0.026243157296189
0.025737197207131
0.025213403225888
0.024672679245386
0.024115119574152
0.023542027207535
0.022952871718592
0.022349662215818
0.032765300965784
0.032742354404705
0.032695844842057
0.03262492979992
0.0325291063841
0.032408350166723
0.032262886383592
0.032092960946897
0.031898765176149
0.0316804624005
0.031438218881824
0.031172229243721
0.030882713212401
0.030569928709365
0.030234148982146
0.029875691123601
0.029494874658532
0.029092083967843
0.028667678230934
0.028222122667766
0.027755798659874
0.027269284256213
0.026762941682191
0.026237522948917
0.025693271221785
0.02513124320146
0.024551337506412
0.023955179375223
0.023341680802906
0.022713433191243
0.03377039068476
0.033746500157191
0.033698080342143
0.033624263911087
0.03352454004794
0.033398887881765
0.033247529404346
0.033070693501616
0.032868543691878
0.032641213141383
0.032388836892451
0.032111580432926
0.031809631398029
0.031483218823749
0.031132581842688
0.030758011157307
0.030359790627024
0.029938285618029
0.029493818208168
0.029026850031169
0.028537719958407
0.028027031802122
0.027495086079186
0.026942718876108
0.0263700536351
0.025778345179649
0.025167205483075
0.024538673446308
0.023890831633684
0.023227017197924
0.035019023912418
0.034994067430582
0.034943483336787
0.034866366635279
0.034762181686207
0.03463089788129
0.034472724515089
0.034287864797688
0.034076443929282
0.033838552465062
0.033574280096637
0.033283748651424
0.032967097821803
0.032624511702858
0.032256177411013
0.031862342261123
0.031443235364734
0.030999186779246
0.030530461835375
0.030037504935834
0.029520591679048
0.028980343750701
0.028416974228713
0.027831407094018
0.027223603847559
0.026595048721567
0.025944981022922
0.025275950852465
0.024584990647294
0.023876422367012
0.036476593712193
0.03645051643262
0.036397653561665
0.036317058417156
0.036208161601779
0.036070911442696
0.035905492444723
0.03571206983449
0.03549071718578
0.035241467668993
0.034964348587276
0.034659419186751
0.03432675003444
0.033966458152229
0.033578654887008
0.033163520308575
0.032721203032142
0.032251972838081
0.031756011161713
0.031233721051166
0.030685286748804
0.030111327973805
0.029511939178992
0.028888124464789
0.028239641796242
0.027568227150369
0.026872669541504
0.026156121127974
0.025414351457768
0.024652882050251
0.038111953569919
0.038084781015321
0.038029686976211
0.03794568147
0.037832154928097
0.037689024429542
0.037516436687117
0.037314503973405
0.037083231210294
0.036822575007313
0.036532478680656
0.036212915296949
0.035863860645855
0.035485337393253
0.035077352073461
0.034639987072589
0.0341732787415
0.033677403808804
0.033152426349465
0.032598674559414
0.032016207037655
0.031405610537894
0.030766824717472
0.030100912799021
0.029407383071013
0.028688229355553
0.027941708254562
0.027171642875584
0.026372316547809
0.02555063228255
0.039896386873871
0.039868225808042
0.039811112817891
0.039724014565993
0.039606274810868
0.039457768064275
0.039278588853127
0.039068779851949
0.038828258220594
0.038556882408087
0.038254487802958
0.037920935007615
0.037556076341548
0.037159808535328
0.036731999633369
0.036272597735869
0.035781489415737
0.035258717594056
0.034704188748388
0.034118112212744
0.033500378819455
0.032851497987819
0.032171209735212
0.031460599168622
0.030718870617318
0.029948263117386
0.02914640991874
0.028317855332174
0.027455163843442
0.026566778923059
0.04180294874291
0.041773983571062
0.041715221486741
0.041625586671411
0.041504369808259
0.041351391232336
0.041166678654249
0.040950188092708
0.040701729156303
0.040421039537994
0.040107821455758
0.039761794628314
0.039382656574121
0.038970142753995
0.038523945146967
0.038043835399191
0.037529507515714
0.036980822044873
0.036397480941741
0.035779520312368
0.035126613015105
0.034439133269891
0.033716567518742
0.03295996907874
0.032168173408406
0.031343634179509
0.030483260049519
0.029592348106499
0.02866149621946
0.02770081580992
0.043806108191971
0.04377659460974
0.043716698507724
0.04362530333314
0.043501640963408
0.043345466741666
0.043156727552242
0.042935275912221
0.042680794230121
0.042392876893268
0.042071067531388
0.041714915752789
0.041323931823331
0.04089765251308
0.040435553968461
0.039937185268001
0.039402001349489
0.03882962534478
0.038219502203643
0.037571430998162
0.036884808657872
0.036159803679665
0.03539558455116
0.034593102961016
0.033750748614179
0.032871140317622
0.031950345218173
0.030994424349636
0.029991738859993
0.028954153746662
0.045881612839623
0.045851868923891
0.045791481503448
0.045699295329114
0.045574479100609
0.045416714104625
0.045225853705333
0.045001631135451
0.044743583396451
0.044451140637293
0.044123664105888
0.043760505117538
0.043360955089965
0.042924314578685
0.042449803910909
0.041936701603098
0.041384175217541
0.040791550959321
0.040157960249911
0.039482893543097
0.038765406954087
0.038005381117893
0.037201592006672
0.036354804553491
0.035462870706347
0.034528506368529
0.033546801832831
0.032524569738767
0.031447637691243
0.030329657328886
0.048006506963867
0.047976899825365
0.047916768057002
0.047824918413492
0.047700453841096
0.047542975166928
0.047352231557444
0.047127823240884
0.046869126589322
0.046575389800388
0.046245771386863
0.045879399087686
0.045475316794365
0.045032553432507
0.044550035514399
0.04402672367741
0.043461450299126
0.042853183354593
0.042200682513257
0.041503052682027
0.040758939231545
0.039967843523087
0.039128064261883
0.038240081040051
0.037301100966718
0.036313850506803
0.035272286262471
0.034183934542755
0.033031764599316
0.031831181761013
0.050159255948828
0.050130189410652
0.050071131476609
0.049980856950741
0.049858405482816
0.049703293599331
0.049515157590966
0.049293453764442
0.049037386527291
0.048746008893574
0.048418261261983
0.048053027209998
0.04764907952851
0.047205144470036
0.046719821393645
0.046191709124084
0.045619260360557
0.045001025057433
0.044335333756787
0.043620827254103
0.042855667468453
0.042038878821811
0.041168190336923
0.040243686417799
0.039261806986431
0.038225185794312
0.037126468107082
0.035973826899158
0.034747020974804
0.03346309461664
0.052319896145809
0.052291794969749
0.052234670074087
0.052147276220319
0.052028595435774
0.051878058284001
0.051695182913108
0.051479275805566
0.051229363846385
0.05094429709586
0.050622788114779
0.05026346197312
0.049864803694929
0.049425212510636
0.048942934409481
0.048416168755832
0.047842950416581
0.047221356410044
0.046549234977613
0.04582468650932
0.045045317211768
0.044209575095984
0.043314521767292
0.042359728677465
0.041340734543276
0.040259961094347
0.039108545439841
0.037895210102143
0.036596130024854
0.035229775438566
0.054470183255522
0.054443477899443
0.054389158460934
0.054305974137444
0.054192858110255
0.054049156441598
0.053874267509551
0.053667346511888
0.053427243109619
0.053152604036931
0.052841912561948
0.052493528368946
0.052105639976774
0.051676303908901
0.051203395676937
0.050684686681333
0.050117764909467
0.049500188035594
0.048829276559021
0.048102520556813
0.047316902850859
0.046470198289161
0.045558702844087
0.044581354292947
0.043532647612774
0.042414659651733
0.041216808705446
0.039948234348768
0.038581143003491
0.037135107871949
0.05659374236858
0.056568855074222
0.056518198434891
0.056440532445376
0.056334752573167
0.056200125103482
0.05603593148367
0.055841179507056
0.055614547981174
0.055354486409903
0.055059254876552
0.054726950440993
0.054355466551629
0.053942511302377
0.053485583314368
0.052982009104771
0.05242891217058
0.051823296376499
0.051161920179092
0.050441604121946
0.049658648769939
0.048810066505025
0.047891293369088
0.046900515125737
0.045831039966221
0.044684459219114
0.043448255703089
0.042131816016912
0.040702989723017
0.039182001397294
0.058676178572842
0.058653510352813
0.05860733230501
0.058536433060048
0.058439683980505
0.058316279086999
0.058165389440975
0.05798588456256
0.057776285315538
0.057534857390663
0.057259651433073
0.05694851283582
0.056599051211974
0.05620863297153
0.055774385298725
0.055293186424973
0.054761691157676
0.05417633015841
0.05353327942666
0.052828646218073
0.052058002621806
0.051217522646231
0.050301695688095
0.049307844190227
0.048227947755371
0.047062971142403
0.045798255371727
0.044443241130622
0.042961045589036
0.041371945391926
0.060705137684459
0.060685056492215
0.060644107685497
0.060581127958464
0.060494980089161
0.060384796244187
0.060249647314485
0.060088277775661
0.059899068380849
0.059680121029579
0.05942929846637
0.059144214662134
0.058822215899349
0.058460344821311
0.058055375373147
0.057603749449805
0.057101662922286
0.056544972230715
0.055929265490521
0.055249914133328
0.054501729680004
0.053679995676428
0.052778178186255
0.051792643998338
0.050713898122384
0.049542135364497
0.048260344262007
0.046877829940381
0.045352673684426
0.043704503978382
0.062670313569151
0.062653145299022
0.062618092559043
0.062564060647158
0.062489920634785
0.06239475566289
0.062277550511091
0.062136942661052
0.061971195188333
0.061778271002467
0.061555871590863
0.061301407492157
0.061011990982499
0.060684370674804
0.060314996009544
0.059899901067987
0.059434846486758
0.058915135439181
0.058335776284769
0.057691411418611
0.056976069322359
0.056184129285869
0.055307961218396
0.054342937800894
0.053277932998378
0.052112265362451
0.050826275706827
0.049428902286334
0.047872926925687
0.046176701604549
0.064563401550196
0.064549426481097
0.064520840549145
0.064476639232563
0.064415721725375
0.064337137695243
0.064239801161765
0.064122262056004
0.063982691939846
0.063818945830712
0.06362859724487
0.063408888620743
0.063156734345893
0.062868628727885
0.062540733910897
0.062168719154465
0.06174794324382
0.061273202232532
0.06073894258858
0.060139124793853
0.059466973830627
0.058716012046345
0.057877412160924
0.056945618973222
0.055907658930339
0.054762094044871
0.053486168896581
0.05208829576211
0.050515183537792
0.048783061813194
0.066377990155452
0.066367451400755
0.066345814881617
0.066312175149847
0.066265482319561
0.066204779555684
0.066128932995099
0.066036425406061
0.065925360064927
0.065793511539927
0.065638359222005
0.065457019661437
0.065246257303935
0.065002366476223
0.064721273016184
0.064398339682699
0.064028565564722
0.063606303334249
0.063125461465131
0.062579402892058
0.061960529478145
0.061261638485433
0.06047255578357
0.059587021991064
0.05858976028634
0.057479149838083
0.056228490219353
0.054846857685488
0.053272582976514
0.051518751538267
0.068109399600552
0.068102484579375
0.068088199319154
0.068065730969601
0.068034085989855
0.067992315253425
0.067939256945131
0.067873361492441
0.067792710892266
0.067695036501631
0.067577749399923
0.067437864391619
0.067272034705297
0.067076408736989
0.066846743510561
0.066578172703411
0.066265411012249
0.065902449057738
0.065482714924667
0.06499906042851
0.064443084940715
0.063807008569773
0.06307922514183
0.062253113614951
0.06131044937048
0.060250325348425
0.059039850730727
0.057692932026167
0.05613426184092
0.054381483926907
0.069754604586084
0.069751307639859
0.069744536679721
0.069733632753865
0.069717682857495
0.069695719968164
0.069666509631463
0.069628451557613
0.069579646547168
0.06951785142543
0.069440481698248
0.069344501076339
0.069226497226169
0.069082499576633
0.068908132328064
0.068698330370246
0.06844760155081
0.068149628414221
0.067797504601239
0.06738359600569
0.066898916145927
0.066334998511733
0.065679187419223
0.06492430329853
0.064049705739957
0.063054839750346
0.061899007182494
0.060602579208816
0.059068892908752
0.057343245912374
0.071312454847233
0.071312409041631
0.07131273775057
0.071313179397839
0.07131296933097
0.071311129323179
0.071306375794733
0.071297058246987
0.071281207309924
0.071256528199235
0.071220398995692
0.071169781049857
0.071101323273528
0.071011068016191
0.07089462163581
0.070746748589493
0.070561778509921
0.070332979894013
0.070053207400447
0.06971410787698
0.069306609138958
0.068820827917664
0.068244421485361
0.067567353196733
0.066770972611011
0.065848313131409
0.064762808209204
0.063521035254044
0.062020987994276
0.060292889138952
0.072784266108683
0.072787053048047
0.072793618228866
0.072804704062876
0.072819540822453
0.072836961791693
0.072855963158553
0.072875199385278
0.072892721294972
0.072906052033664
0.072912401877227
0.072908586886967
0.072891123184471
0.072856052355752
0.07279915487649
0.072715342453786
0.07259909547104
0.072443425781396
0.072241034602389
0.071982499096498
0.07165874454905
0.071257683039868
0.070768721605903
0.070175112436064
0.069465925991671
0.068618512333772
0.067625095965367
0.066443204386281
0.065033736190082
0.063218559552854
0.021590383921606
0.021049762779197
0.020498859747415
0.019938674935661
0.019370006099915
0.01879348958234
0.018209690968495
0.017619167073166
0.017022493827356
0.016420272612831
0.015813129150998
0.015201710040275
0.01458667717906
0.013968699937531
0.013348449176451
0.012726594419714
0.01210380419736
0.0114807443133
0.01085807796304
0.010236463643775
0.0096165627699364
0.0089990474318293
0.0083846499877749
0.007774227164089
0.007168848751937
0.0065681854395077
0.0059726770612644
0.0053831127794299
0.0048002696198762
0.0042248175309812
0.0036573389921748
0.0030983721576201
0.0025484396787675
0.0020080580828067
0.0014777316265753
0.00095795345120604
0.00044919783760243
-4.8067901295357e-05
-0.0005334057248662
-0.0010063815816135
-0.0014666189552931
-0.0019137277803524
-0.0023474254740073
-0.0027673587776883
-0.0031733845774542
-0.0035651495576685
-0.0039427371902171
-0.0043057077571712
-0.0046546100947929
-0.0049888161380671
0.021772537016712
0.021224412153906
0.020664958782528
0.020096059342712
0.019518837322924
0.018933895055784
0.018341613146412
0.017742363790453
0.017136605346251
0.016524886701774
0.01590782059178
0.015286057822899
0.014660266968127
0.014031121524324
0.013399296916041
0.012765475559251
0.012130350688626
0.011494628969224
0.010859027947657
0.010224278611115
0.0095911109183379
0.0089602379791718
0.0083322540686758
0.0077074845048622
0.0070856896095518
0.0064692117469434
0.0058589669992914
0.0052553305811965
0.0046587131453079
0.0040696530738445
0.0034887587078453
0.0029166511240841
0.002353926648648
0.0018011551567204
0.0012588770606419
0.0007276223384599
0.00020788685730371
-0.00029983597449144
-0.00079511341369901
-0.0012774889101437
-0.0017466163283178
-0.0022020565693978
-0.002643593741131
-0.0030707546315308
-0.0034835412948069
-0.0038813137233149
-0.0042644548865434
-0.0046318102654052
-0.0049843697877717
-0.0053193077563389
0.022114362297449
0.021545800287053
0.020963250716361
0.020370766642148
0.019770471501172
0.019163081803127
0.018548691111612
0.017927363767169
0.017299393526043
0.016665299227976
0.016025733030211
0.015381401481218
0.014733016612735
0.014081274389537
0.013426859231185
0.012770459336703
0.012112777040066
0.011454524736097
0.010796419457234
0.010139172007511
0.0094834841540312
0.008830053831846
0.0081796212144196
0.0075331014624461
0.0068919164904893
0.0062558799161538
0.0056255655498953
0.005001797215959
0.0043853595857326
0.0037769261210544
0.0031771068512001
0.0025865048007613
0.0020057121586103
0.0014353097579663
0.00087584081170879
0.00032784252045187
-0.00020820544392608
-0.00073180128848133
-0.0012425456420942
-0.0017399497296329
-0.002223732061681
-0.0026933673817516
-0.0031487788335867
-0.0035892850234904
-0.004015197942104
-0.0044253808607082
-0.0048208891687757
-0.0051993122530705
-0.0055628590193113
-0.0059048629069577
0.02259515519995
0.021993918592823
0.021375054421046
0.020746116564123
0.020110720556465
0.019469658041091
0.018822519614065
0.018168885239097
0.017508808241781
0.016842770966378
0.016171480595772
0.015495710055262
0.014816212053202
0.01413369071773
0.013448818399558
0.012762270318652
0.012074744583459
0.01138696246187
0.010699660006816
0.010013585983565
0.0093295012802511
0.0086481701079174
0.0079703564529965
0.0072967683034947
0.0066279270895965
0.0059646957576026
0.0053078285677452
0.0046579967330147
0.004015829106591
0.0033819707556306
0.0027570609681578
0.0021417133695991
0.0015365016797498
0.00094199003153844
0.00035869395686601
-0.00021286155689315
-0.00077223637144213
-0.001318924771538
-0.0018525846232702
-0.002372681588634
-0.0028790342732305
-0.0033709806802119
-0.0038486527570329
-0.0043110337679658
-0.0047589076554926
-0.0051903434881209
-0.0056074170202639
-0.0060056978088093
-0.0063891056431036
-0.0067446035555902
0.023202533958268
0.022558008497176
0.021891168414584
0.021214418426431
0.020533319494617
0.019848645191614
0.019159240980685
0.018464030538694
0.01776276871655
0.017055909877213
0.016344239063662
0.015628608799512
0.01490981285662
0.014188554390341
0.013465480620361
0.012741240527963
0.012016517743581
0.011292028624294
0.010568508198646
0.0098466998541683
0.0091273477950453
0.0084111849661291
0.0076989273097174
0.0069912752559429
0.0062889294678583
0.0055926477640037
0.0049031403658085
0.0042210624257442
0.0035470442477894
0.0028817183435066
0.0022256983419724
0.0015795765726597
0.00094389657396031
0.00031919606239872
-0.00029405381552988
-0.00089534707840769
-0.0014842994751086
-0.0020603992818654
-0.0026233860694083
-0.0031726600160892
-0.0037081816400949
-0.0042290940340733
-0.0047358234361297
-0.0052268787663259
-0.0057037000908697
-0.0061632365745303
-0.0066089788480584
-0.007033669816149
-0.0074436955994491
-0.0078172955519832
0.023928742812142
0.023231060736293
0.022505159151099
0.021769786965806
0.021032920381074
0.020295185043788
0.019554416986891
0.018808719906069
0.018057515200826
0.017301258405003
0.016540846585076
0.015777229209389
0.015011243385317
0.014243584990915
0.013474865986668
0.012705698878054
0.011936743381713
0.011168702064714
0.010402298683535
0.0096382643699902
0.008877329429052
0.0081202154684499
0.0073676315849831
0.0066202788811116
0.0058788487992751
0.0051440287299859
0.0044164845229006
0.0036968611258435
0.0029857746048822
0.0022838220533907
0.0015915677762657
0.00090956027664659
0.00023829053490632
-0.00042174671714367
-0.0010701487728287
-0.0017064470016252
-0.0023303480410123
-0.002941345979105
-0.0035393087054628
-0.004123560868171
-0.0046942767452937
-0.0052503456815904
-0.0057926190337499
-0.006318967923871
-0.0068317549947369
-0.0073264183398726
-0.00780841425997
-0.0082667092486644
-0.0087111287322293
-0.0091083952420175
0.024768740838309
0.024008406259341
0.023212586944549
0.022408069830984
0.021605728724072
0.02080584896727
0.02000494985836
0.019200149714424
0.018390520899017
0.017576566302578
0.016759335357422
0.015939891050791
0.015119114313716
0.014297687433712
0.01347617900524
0.01265515799238
0.011835255743434
0.011017158524862
0.010201576788391
0.0093892264768609
0.0085808197662436
0.0077770559927127
0.0069786158046031
0.0061861639181159
0.0054003489159167
0.0046218186037111
0.0038511953739026
0.0030890789154495
0.0023360362493621
0.0015926104633505
0.00085929972917257
0.00013658842593919
-0.00057511068128556
-0.0012753691710408
-0.0019638862536907
-0.002640252765553
-0.0033043091941299
-0.00395556697407
-0.004594083094824
-0.0052190905138528
-0.0058310766489249
-0.0064285984432934
-0.007013118103564
-0.0075816567844271
-0.0081378697117507
-0.008675186306535
-0.0092017590964362
-0.0097015887415369
-0.010189210604953
-0.010616417979681
0.025720322322584
0.024888047548675
0.0240114756707
0.023127385068773
0.022250053753135
0.02137915612686
0.020509528948895
0.01963713427792
0.0187607030357
0.017880853656049
0.016998836390698
0.016115841523846
0.015232789809558
0.014350342709467
0.013469019499421
0.012589341712566
0.011711910116461
0.010837392811507
0.0099664837351563
0.009099877875411
0.0082382603697694
0.0073822962268791
0.0065326247904642
0.0056898645183858
0.0048546153819039
0.0040274714521079
0.0032089966943487
0.0023997261277595
0.001600154573502
0.0008107497376612
3.1923441240204e-05
-0.00073592664974732
-0.0014924977533517
-0.0022374561844756
-0.0029706422913605
-0.003691732392342
-0.0044007565955791
-0.0050972596593058
-0.0057815728828285
-0.0064528216690298
-0.0071119498222512
-0.0077570869795309
-0.0083905682175869
-0.0090082945631141
-0.009615717037587
-0.010203607832571
-0.010783775392794
-0.01133374261223
-0.01187438154901
-0.012338479520307
0.026783674338482
0.025870232254699
0.024901896710282
0.023927713241809
0.022965904964176
0.022015173060978
0.021068236988492
0.020119724093501
0.019168056827261
0.01821406080129
0.017259244174488
0.016304937166899
0.015352093106503
0.014401345045319
0.01345316049595
0.01250801433792
0.011566478260609
0.010629202842604
0.0096968641250587
0.0087701323426094
0.0078496596733012
0.0069360693927115
0.0060299514341654
0.0051318690189946
0.0042423618679004
0.0033619554965293
0.0024911379978687
0.0016303590728961
0.00078001881013254
-5.9514529095689e-05
-0.00088794284784231
-0.0017049843465372
-0.0025104818800021
-0.0033042305800462
-0.0040862624627886
-0.0048563719370104
-0.0056148512875994
-0.0063612990085242
-0.0070964378666941
-0.0078192635193342
-0.0085313763471509
-0.0092303515497742
-0.0099197634478609
-0.010594035230121
-0.011261107704361
-0.011908253738527
-0.012552247603201
-0.013162226439259
-0.013767589589682
-0.014277087889208
0.027960942481858
0.026957056967694
0.025885619039746
0.024810598221026
0.023754741137631
0.022715302933586
0.021682371019038
0.020649056154565
0.019613539973416
0.018576976591092
0.017541198416477
0.016507683063599
0.015477402724146
0.01445095340255
0.013428752175774
0.012411233889931
0.011398947537953
0.010392529563414
0.0093926389418862
0.0083999200752314
0.0074149889452752
0.0064384215713493
0.0054707510246626
0.0045124754300564
0.0035640616339388
0.0026259516750478
0.0016985403036174
0.00078217222147283
-0.0001228700055591
-0.0010163476566764
-0.0018981101934713
-0.0027680270936352
-0.0036261280141383
-0.0044723760119693
-0.005307054263166
-0.0061301164969238
-0.0069422114657234
-0.0077430144536942
-0.0085337975672971
-0.0093133917459969
-0.010084337763331
-0.010843476503663
-0.011596147878
-0.012334801207488
-0.013070855414007
-0.013786942815444
-0.014506610292239
-0.01518810345873
-0.015872270186408
-0.016437575241647
0.029255814618339
0.028152096898089
0.026965792194597
0.025778887741339
0.02461926562295
0.023482131614854
0.022354338761491
0.021227298327232
0.02009905761515
0.018971251765248
0.01784611283328
0.016725269769891
0.015609694955983
0.014499938351108
0.013396372603181
0.012299405119194
0.011209573797514
0.010127508829295
0.0090538560896396
0.0079892348274631
0.0069342232246029
0.0058893464368854
0.0048550755094093
0.0038318357177649
0.0028200100178111
0.0018199425041625
0.0008319169054757
-0.00014385126248164
-0.0011072231485941
-0.0020581204179258
-0.0029965743503796
-0.0039226487535451
-0.0048366097019773
-0.0057386384802446
-0.0066293416131347
-0.0075088823987321
-0.0083783853648645
-0.0092376300032985
-0.010088651851161
-0.010930064898509
-0.011765750447561
-0.01259156425184
-0.013415363646063
-0.014226942980504
-0.015042602679562
-0.015838779707409
-0.016648333648778
-0.017415282777722
-0.018195960483241
-0.01883062359487
0.030673101218165
0.02946003741743
0.028146640043639
0.026836486100744
0.025563223579062
0.024319252238897
0.023087498395892
0.021857503600481
0.02062733771406
0.019399302311008
0.018176109159341
0.016959533368841
0.015750523618382
0.014549578467861
0.013357039318015
0.012173305572979
0.010998921170909
0.0098345222497408
0.0086807492020832
0.0075381997873841
0.0064074155679926
0.0052888706046539
0.0041829723724729
0.0030900683514098
0.0020104483608076
0.00094434393193908
-0.00010808958168017
-0.0011467896064042
-0.0021717883315678
-0.0031832057899079
-0.0041812948559277
-0.0051663643214253
-0.006138974369274
-0.0070995888381811
-0.0080492242776106
-0.0089883176181577
-0.009918620067836
-0.010840045800056
-0.011755680741162
-0.012663834070891
-0.013570291456003
-0.014469548010082
-0.015373064275681
-0.016267000440405
-0.017174551651454
-0.018063796452837
-0.018980487875991
-0.019849903080811
-0.020749485540839
-0.021470932951775
0.032218282298002
0.03088625835815
0.029433101013491
0.027988055516969
0.026591155630278
0.025231060593708
0.023885991111513
0.022543476304028
0.021201825611373
0.019864226890381
0.018533953228185
0.017212910370525
0.015901993886839
0.014601649617734
0.013312210952515
0.012034097969658
0.010767884251432
0.0095142293915238
0.0082737802158138
0.0070471200035439
0.0058347582895664
0.0046371220229441
0.0034545582784412
0.0022873364474074
0.0011356471734775
-4.0375549790077e-07
-0.0011208072806751
-0.0022256784569822
-0.0033152486468129
-0.0043898764405252
-0.0054500815708234
-0.0064964788903937
-0.0075299906054817
-0.0085514426859019
-0.0095623696670953
-0.010563565727701
-0.011557600440128
-0.012544558673926
-0.013528961093339
-0.014508672559775
-0.015492173947002
-0.016472036054101
-0.01746489051274
-0.018451843084472
-0.019465892664883
-0.020463721484842
-0.021509014001244
-0.022502157419233
-0.023549282317529
-0.024379915692695
0.033897029651959
0.032436403204976
0.030830465729433
0.029238717609798
0.027708144265293
0.026222530703844
0.024754541261145
0.023289601829517
0.021826547543439
0.020369700286749
0.018922971300864
0.017488371032512
0.01606671168952
0.014658392921666
0.013263773232007
0.011883331706217
0.010517703302707
0.009167593904429
0.0078336730797889
0.0065165223171744
0.0052166297699178
0.0039343845938007
0.00267007998548
0.0014239104149746
0.0001959659532827
-0.0010137799554324
-0.0022054793264188
-0.0033794480022221
-0.0045361479470895
-0.0056762184512157
-0.0068004996434613
-0.0079099774567603
-0.009006018843949
-0.010089903611107
-0.011163820748454
-0.012229025230878
-0.013289154556197
-0.014344511598359
-0.015401564316338
-0.016457540189282
-0.017524710807959
-0.018592914557578
-0.019686182271734
-0.020778542232765
-0.021916923798315
-0.023042454785466
-0.02424376111447
-0.025388151878943
-0.026620986358299
-0.027591403365792
0.035714702407397
0.034115914134336
0.032343985810301
0.030593737971637
0.028919549336559
0.027298976426539
0.025698237427636
0.024100653328367
0.022505950345767
0.020919848804733
0.01934695548461
0.01778934623501
0.016247725841956
0.014722469961634
0.013214010190195
0.011722932412121
0.010249969608106
0.0087959009502641
0.0073614402184799
0.0059471872208964
0.0045536285908408
0.0031811341682429
0.0018299570439673
0.00050022455697412
-0.00080807904352289
-0.0020951180715679
-0.0033612091326141
-0.0046068782656857
-0.0058328548857561
-0.0070401000714134
-0.0082298387242306
-0.009403489349892
-0.010562972449157
-0.011710112852657
-0.012847935680031
-0.013978265217653
-0.015106132096769
-0.016232109260625
-0.017365272602457
-0.018501971879699
-0.019659714595476
-0.020824557716422
-0.022030955242479
-0.02324318969451
-0.024527728245206
-0.02580500326207
-0.027197632699241
-0.028530628646721
-0.030001225567704
-0.031156392094672
0.037675845992237
0.035929553669276
0.033978464024832
0.032058191408693
0.030230729587639
0.028465809659203
0.026722315454736
0.024981595323523
0.023244727050628
0.021519100940483
0.019810044129653
0.018119638442438
0.016448464039273
0.014796916725253
0.013165569518101
0.011555175745028
0.0099666098096571
0.0084007541734503
0.0068583926234407
0.0053401713727379
0.0038466062822654
0.0023780763224727
0.00093481345353227
-0.00048309931097255
-0.0018757840787071
-0.0032435558088828
-0.0045868985821236
-0.0059065433793391
-0.0072035198188515
-0.00847914063779
-0.009735097445455
-0.010973291933387
-0.01219634445669
-0.013406703621624
-0.014608483121028
-0.015804176848647
-0.017000643524146
-0.018198780601802
-0.0194110846721
-0.020632791103343
-0.021888368557264
-0.023158926069377
-0.02449306803968
-0.02584224263581
-0.027299408451223
-0.028758817705174
-0.030386668483795
-0.031959011140465
-0.033727503128713
-0.035123349105115
0.039783732199057
0.03788096980496
0.03573787436533
0.033636628927338
0.031646736148566
0.029728257788766
0.027831915429298
0.025937389191101
0.02404765805142
0.022172043021371
0.020316580605741
0.018483290383407
0.016672627955348
0.014885074737478
0.013121428393756
0.011382679335078
0.00966989293729
0.0079840922973345
0.006326164877141
0.0046968386979841
0.0030967019967354
0.0015261909000021
-1.444696674612e-05
-0.0015251739357233
-0.0030062207449588
-0.0044580261104251
-0.0058812245068453
-0.0072767632466304
-0.0086460126780142
-0.0099906514566469
-0.011312923379855
-0.012615259806679
-0.0139011606402