/*--------------------------------*- C++ -*----------------------------------*\
| =========                 |                                                 |
| \\      /  F ield         | OpenFOAM: The Open Source CFD Toolbox           |
|  \\    /   O peration     | Version:  2112                                  |
|   \\  /    A nd           | Website:  www.openfoam.com                      |
|    \\/     M anipulation  |                                                 |
\*---------------------------------------------------------------------------*/
FoamFile
{
    version     2.0;
    format      ascii;
    arch        "LSB;label=32;scalar=64";
    class       surfaceScalarField;
    location    "7";
    object      phi;
}
// * * * * * * * * * * * * * * * * * * * * * * * * * * * * * * * * * * * * * //

dimensions      [0 3 -1 0 0 0 0];

oriented        oriented;

internalField   nonuniform List<scalar> 
43645
(
0.39512358711534
-4.7140737859677e-06
0.39513778075558
-1.4193666774161e-05
0.39516142980218
-2.3649075268335e-05
0.39519450648466
-3.3076712088419e-05
0.39523699360726
-4.2487152363317e-05
0.39528885321947
-5.1859641696843e-05
0.39534999081461
-6.113762411882e-05
0.3954202545171
-7.0263730879341e-05
0.39549947913533
-7.9224645949276e-05
0.39558756912742
-8.8090019160213e-05
0.39568456064574
-9.6991544695246e-05
0.39579065389483
-0.00010609327481715
0.39590616911922
-0.00011551524942136
0.3960315089016
-0.00012533980679011
0.39616705993631
-0.00013555105843634
0.39631320581354
-0.00014614590039131
0.39647023859377
-0.00015703280274827
0.39663850852108
-0.00016826994931841
0.39681827696298
-0.00017976846334441
0.39701004011151
-0.00019176316954583
0.39721410899966
-0.0002040689086787
0.39743124663836
-0.00021713765887613
0.39766163360189
-0.00023038698329669
0.39790629430836
-0.0002446607259594
0.3981648034114
-0.00025850912220232
0.39843858467569
-0.00027378128324707
0.39872588506098
-0.00028730040397366
0.39902922112074
-0.00030333607804844
0.39934430853682
-0.00031508743375891
-0.00033216573254041
0.39967647425155
0.37294696280335
-9.1221759495344e-06
0.37296032259454
-2.755350057183e-05
0.37298275503435
-4.6081558440612e-05
0.37301422660928
-6.4548330345461e-05
0.37305470916507
-8.2969750922957e-05
0.37310415708755
-0.00010130760623759
0.37316246980796
-0.00011945038571048
0.37322948798015
-0.00013728194339706
0.37330503589261
-0.00015477259779171
0.37338900438549
-0.00017205855055504
0.37348141391847
-0.00018940111521553
0.37358244797566
-0.00020712736866418
0.37369241008963
-0.00022547739909571
0.37381168620676
-0.00024461595878078
0.37394064702365
-0.00026451190925944
0.37407965962832
-0.00028515853822139
0.37422900085883
-0.00030637406558784
0.37438900456305
-0.00032827368518691
0.37455992016286
-0.00035068409406578
0.37474222920954
-0.00037407224658124
0.37493623964006
-0.00039807936893201
0.37514270228351
-0.0004236003316125
0.37536181251556
-0.00044949724411412
0.37559458140774
-0.00047742964657826
0.37584063323275
-0.00050456097520882
0.37610136334172
-0.00053451141997476
0.37637513802888
-0.00056107511853062
0.37666439354502
-0.00059259162103951
0.37696511087146
-0.00061580478583449
-0.00064949756525146
0.37728244267803
0.35201523940185
-1.3464095731547e-05
0.35202836989882
-4.0684042617157e-05
0.35205031967885
-6.8031383667207e-05
0.35208105549825
-9.5284194468216e-05
0.35212054605028
-0.0001224603468145
0.35216873703883
-0.0001494986377313
0.35222551590698
-0.00017622929573564
0.35229070958146
-0.00020247565876352
0.35236412639688
-0.0002281894530041
0.3524456389188
-0.00025357111126908
0.3525352469338
-0.00027900916787448
0.35263311312352
-0.00030499359507486
0.35273952020855
-0.00033188451969322
0.35285483577107
-0.00035993155594369
0.35297941177571
-0.00038908794749942
0.35311359954156
-0.00041934633684717
0.35325765699254
-0.00045043154840187
0.35341190325674
-0.00048251998052904
0.3535765658116
-0.00051534667925938
0.35375211277087
-0.0005496192356457
0.35393882636468
-0.00058479299187391
0.35413745155125
-0.00062222554693553
0.35434815895007
-0.00066020467114104
0.35457197554343
-0.00070124626790119
0.3548085074182
-0.00074109287753121
0.35505920236352
-0.00078520639270495
0.35532240836599
-0.00082428114809525
0.35560065714392
-0.00087084042563923
0.35588987845249
-0.00090502611988277
-0.0009549503463146
0.35619533120733
0.33225831563243
-1.773580618005e-05
0.33227126725367
-5.3635703927401e-05
0.33229290929084
-8.9673461092458e-05
0.33232318968633
-0.00012556462985711
0.33236206068596
-0.00016133138559317
0.33240945197342
-0.00019688996353885
0.33246523264494
-0.0002320100046505
0.33252920863563
-0.00026645168596281
0.33260116477119
-0.00030014562406226
0.33268094926036
-0.0003333556350242
0.33276853735246
-0.00036659729350771
0.33286406976923
-0.00040052604447638
0.33296780873236
-0.00043562351441703
0.3330801053293
-0.00047222818362777
0.33320129428254
-0.00051027693052136
0.33333171385954
-0.00054976594287555
0.33347160438281
-0.00059032209983743
0.33362127414059
-0.00063218976587475
0.33378092977007
-0.00067500233556783
0.33395103176383
-0.00071972125577609
0.33413183634469
-0.00076559759850822
0.33432409071143
-0.00081447993914679
0.33452793691644
-0.00086405090115412
0.33474443050444
-0.00091773988072371
0.33497315106147
-0.00096981345903079
0.33521562355533
-0.0010276789109706
0.33547016646793
-0.0010788240848371
0.33573946345978
-0.0011401374412829
0.33601938760114
-0.0011849502839789
-0.0012510399029181
0.33631547713419
0.31361027368268
-2.1952143638214e-05
0.31362309701324
-6.645907104513e-05
0.31364452644188
-0.00011110292635376
0.31367449550195
-0.00015553372612108
0.31371294011183
-0.00019977603089804
0.31375977302479
-0.00024372291110322
0.31381484359229
-0.00028708060577958
0.31387793419706
-0.00032954232347301
0.31394880219595
-0.00037101365466084
0.31402726714361
-0.00041182061346853
0.31411327629444
-0.00045260647405497
0.31420694697621
-0.00049419675507224
0.31430852109526
-0.00053719766126269
0.31441833474027
-0.00058204185560318
0.31453670625332
-0.00062864846958984
0.31466396123546
-0.00067702095033211
0.31480032063214
-0.00072668152100773
0.31494608039523
-0.00077794955291621
0.31510142344847
-0.00083034541208645
0.31526680283808
-0.00088510066828393
0.31544244836978
-0.00094124315260423
0.31562911444159
-0.0010011460331407
0.31582691804664
-0.0010618545280364
0.31603695338755
-0.0011277752434049
0.31625878002047
-0.0011916401134892
0.31649401370013
-0.0012629126122535
0.31674095033994
-0.0013257607461426
0.31700243867073
-0.0014016257934081
0.31727429259171
-0.0014568042254498
-0.0015390788188109
0.31756233148609
0.29600886493258
-2.6115248779696e-05
0.296021572388
-7.9166560642625e-05
0.29604281412611
-0.0001323446986438
0.29607251215939
-0.00018523179317715
0.29611058820669
-0.00023785211123355
0.29615693907144
-0.00029007380814767
0.29621139424631
-0.00034153581203708
0.29627371169284
-0.00039185980057025
0.29634361994798
-0.00044092193938495
0.29642090859098
-0.00048910928520478
0.29650549597127
-0.00053719388207197
0.29659747595902
-0.00058617676971331
0.29669707067466
-0.00063679240280061
0.29680460221739
-0.00068957342344978
0.29692037334901
-0.00074441962542209
0.29704469764075
-0.00080134526561254
0.29717777673433
-0.0008597606373429
0.29731989414758
-0.0009200669884036
0.29747120901008
-0.00098166029617215
0.29763216668141
-0.0010460583608518
0.297802971709
-0.0011120482009437
0.29798438539215
-0.0011825597368543
0.29817650357235
-0.0012539727284432
0.29838045714569
-0.0013317288369231
0.29859579442425
-0.0014069774120097
0.29882421449856
-0.0014913327066166
0.29906400789381
-0.0015655541613369
0.29931816882133
-0.00165578674074
0.29958248401055
-0.0017211194337242
-0.001819604377674
0.29986300954927
0.27939533378737
-3.0214545892396e-05
0.27940789880658
-9.173161099794e-05
0.27942891327231
-0.00015335919547273
0.27945829006323
-0.00021460861478291
0.27949593898376
-0.00027550106172446
0.27954174311258
-0.0003358779662147
0.27959551408888
-0.00039530681671956
0.27965698720568
-0.00045333294496835
0.27972586368339
-0.00050979844374319
0.27980190452008
-0.00056515014774366
0.27988500054533
-0.00062028993220348
0.27997522358143
-0.0006763998298942
0.28007277733735
-0.00073434618185758
0.2801779710574
-0.00079476716590626
0.28029109289265
-0.00085754148222504
0.28041244468996
-0.0009226970838523
0.28054220918867
-0.0009895251562514
0.28068065665476
-0.0010585144742322
0.280827922817
-0.0011289264775535
0.28098444307328
-0.0012025786359851
0.28115039839826
-0.0012780035443519
0.28132655219761
-0.0013587135545181
0.28151298465064
-0.001440405199497
0.28171085360163
-0.0015295978059876
0.28191971014133
-0.0016158339696343
0.28214131666447
-0.0017129392478632
0.28237398904037
-0.0017982265553062
0.28262082766847
-0.0019026253868764
0.28287765256459
-0.0019779443472642
-0.0020926385818636
0.28315068675016
0.2637142243559
-3.4229479366354e-05
0.26372658844166
-0.00010409572561103
0.26374728356557
-0.00017405434818441
0.26377621644924
-0.00024354152687389
0.26381328805255
-0.00031257269280972
0.26385837101811
-0.00038096095893817
0.26391126259238
-0.00044819841737828
0.26397167889117
-0.00051374926945349
0.26403929726389
-0.00057741684131038
0.2641138533096
-0.00063970621757434
0.26419521310009
-0.00070164974592178
0.26428342856383
-0.00076461531615252
0.26437868683199
-0.00082960447164535
0.26448128545579
-0.00089736581067875
0.26459149927667
-0.00096775532325345
0.26470961873375
-0.0010408165605224
0.26483580897256
-0.0011157154139447
0.26497032623137
-0.0011930317514875
0.26511328467507
-0.0012718849391259
0.26526510670213
-0.0013544006806414
0.26542595327563
-0.0014388501350145
0.26559658247741
-0.0015293427733451
0.26577706720243
-0.0016208899412765
0.26596857686094
-0.0017211074812773
0.26617068465435
-0.0018179417796557
0.26638518630739
-0.0019274409176629
0.26661046363378
-0.0020235038983837
0.26684966643683
-0.0021418282065625
0.26709872443655
-0.0022270023630387
-0.0023578406147299
0.26736392645216
0.24891319555546
-3.8132369854236e-05
0.24892527713683
-0.00011617733317166
0.24894552280185
-0.00019430003931115
0.24897383639345
-0.00027185514425978
0.24901011349276
-0.0003488498173135
0.24905422004485
-0.00042506753567129
0.24910594311347
-0.00049992150993898
0.24916498415831
-0.00057279033763122
0.24923100143018
-0.00064343413574485
0.24930370959367
-0.00071241440297635
0.24938295401112
-0.00078089418446996
0.24946876985249
-0.00085043117797981
0.24956133023371
-0.00092216487252464
0.24966092253933
-0.00099695813535379
0.24976781029679
-0.0010746430990247
0.24988227321534
-0.0011552794968691
0.25000446139246
-0.0012379036082281
0.25013461657319
-0.0013231869489862
0.25027283487473
-0.0014101032569178
0.25041952224555
-0.0015010880674728
0.25057482524026
-0.0015941531453434
0.25073948715891
-0.0016940047075259
0.25091358484445
-0.0017949876420865
0.25109827957108
-0.0019058022232262
0.25129319042788
-0.0020128526516376
0.25150010854681
-0.0021343590519295
0.25171752923429
-0.0022409246011472
0.25194858225153
-0.0023728812390634
0.25218939424936
-0.0024678143756116
-0.0026146469080349
0.25244620052669
0.23494284642032
-4.1891253206796e-05
0.23495454924465
-0.00012788018161119
0.23497419068997
-0.0002139415086831
0.23500167489336
-0.00029933937142516
0.23503689554593
-0.00038407049316279
0.23507971574242
-0.00046788775498054
0.23512991698863
-0.00055012277836612
0.23518719125975
-0.00063006463044747
0.23525118351252
-0.00070742640954695
0.23532159292585
-0.00078282383677803
0.23539824919431
-0.00085755047268278
0.23548117440804
-0.00093335641089773
0.2355705308057
-0.0010115212886497
0.23566659750178
-0.0010930248493653
0.23576962923575
-0.0011776748502527
0.23587989602933
-0.0012655463072422
0.23599753670487
-0.0013555442999601
0.23612277843202
-0.0014484286919694
0.2362557046547
-0.001543029494932
0.23639670150164
-0.0016420849295162
0.23654590890214
-0.0017433605605575
0.23670404505406
-0.0018521408740606
0.23687120485618
-0.0019621474585545
0.23704851909104
-0.0020831164724462
0.23723567998965
-0.00220001356443
0.23743443195678
-0.0023331110333687
0.23764343545818
-0.0024499281167582
0.23786572452203
-0.002595170317065
0.23809771401601
-0.002699803883238
-0.0028623925518217
0.23834545964496
0.22175655096515
-4.5472449344548e-05
0.22176777185571
-0.00013910109417869
0.22178664234804
-0.000232812022974
0.22181306953225
-0.00032576657737013
0.22184694836291
-0.00041794934512976
0.22188814281597
-0.00050908222897768
0.22193643348178
-0.0005984134645812
0.22199150832236
-0.00068513949101022
0.22205300526859
-0.00076892337517606
0.22212061393091
-0.00085043251802663
0.22219415393429
-0.00093109049435601
0.22227363817017
-0.0010128406645852
0.22235922151177
-0.0010971046474208
0.22245117671991
-0.0011849800742094
0.2225497528215
-0.0012762509679438
0.22265521163675
-0.0013710051381848
0.22276768543179
-0.0014680181101451
0.22288738731414
-0.0015681305891438
0.22301439526843
-0.0016700374635888
0.22314907257507
-0.0017767622503097
0.22329156259176
-0.0018858505910449
0.22344254828216
-0.0020031265781608
0.22360215905458
-0.0021217582444168
0.22377147236029
-0.0022524297916161
0.22395028348573
-0.0023788247031522
0.2241402470914
-0.0025230746524306
0.22434024158248
-0.0026499226211264
0.22455312988584
-0.002808058633635
0.22477570472162
-0.002922378731771
-0.0031004067683772
0.22501371892425
0.20931030268522
-4.8843203919374e-05
0.20932093874425
-0.00014973717352717
0.20933887111037
-0.00025074440940614
0.20936401171544
-0.00035090720258768
0.20939625949331
-0.00045019714278829
0.20943548268534
-0.00054830544050066
0.20948146525745
-0.00064439605574615
0.20953389656198
-0.00073757081425151
0.20959241364786
-0.00082744047926454
0.20965670259349
-0.00091472148148535
0.20972657852606
-0.0010009664441984
0.20980204895672
-0.001088311112105
0.20988326502221
-0.0011783207292104
0.20997049481695
-0.0012722098848515
0.21006398509825
-0.0013697412645896
0.21016399111108
-0.0014710111660061
0.21027064403845
-0.0015746710520058
0.21038414413758
-0.0016816307024624
0.21050457237342
-0.0017904657131906
0.21063226684273
-0.0019044567331631
0.21076738644815
-0.0020209702096601
0.21091056965781
-0.0021463098009061
0.21106199862269
-0.0022731872221106
0.21122267627222
-0.002413107453947
0.21139253191068
-0.0025486803542284
0.21157308986443
-0.0027036326188537
0.21176349801618
-0.0028403307854336
0.21196637845146
-0.0030109390813681
0.21217898442206
-0.0031349847143833
-0.0033280754731162
0.21240665311365
0.19756256630023
-5.1972992019025e-05
0.19757252243755
-0.00015969332967069
0.19758935946201
-0.00026758145271142
0.19761299591816
-0.00037454367746565
0.19764333695575
-0.00048053819881138
0.19768025791877
-0.00058522642173458
0.19772354995073
-0.00068768810553805
0.19777290876625
-0.00078692964733567
0.19782797618068
-0.0008825079108277
0.19788844045048
-0.00097518576809165
0.19795411728746
-0.0010666432975151
0.19802501238894
-0.0011592062295825
0.19810127637265
-0.001254584728417
0.19818317404376
-0.0013541075711161
0.19827095340495
-0.0014575206404496
0.19836486445711
-0.0015649222325178
0.19846504329272
-0.0016748499015121
0.19857167891649
-0.0017882663398532
0.19868486436624
-0.001903651176154
0.19880491128806
-0.0020245036679856
0.19893200740971
-0.0021480663439756
0.19906673884629
-0.0022810412500261
0.19920935988195
-0.0024158082700467
0.19936078092943
-0.0025645285136607
0.19952109575935
-0.0027089951962064
0.19969166309532
-0.0028741999669031
0.19987194890508
-0.0030206166071573
0.2000642744319
-0.0032032646200419
0.20026642745268
-0.0033371377466132
-0.0035448808769827
0.20048323284397
0.18647413993744
-5.4835576177159e-05
0.186483333317
-0.00016888672689873
0.18649893567355
-0.00028318382699154
0.18652087371641
-0.00039648173797695
0.1865490605499
-0.0005087250497203
0.18658338071354
-0.00061954660261268
0.18662363549231
-0.00072794290123377
0.18666953104183
-0.00083282521355418
0.18672071895507
-0.00093369584038193
0.18677689468013
-0.0010313615092077
0.18683787888709
-0.0011276275201161
0.18690367837017
-0.0012250057280087
0.18697444572369
-0.0013253520968442
0.1870504434168
-0.001430105278849
0.18713192368157
-0.0015390009193997
0.18721913229444
-0.001652130859287
0.18731221625979
-0.0017679338803412
0.1874113547838
-0.0018874048770751
0.1875166623508
-0.0020089587559801
0.18762842387221
-0.0021362652020008
0.18774686920744
-0.0022665116914666
0.1878725264745
-0.0024066985291965
0.18800574158652
-0.0025490233938973
0.18814731824829
-0.0027061051871871
0.18829754339128
-0.0028592203507685
0.18845758241371
-0.0030342390009011
0.18862726321108
-0.0031902974159729
0.18880855754779
-0.0033845589680746
0.18899985305624
-0.0035284332660313
-0.0037504103116572
0.18920538247882
0.17600802345488
-5.7410286861002e-05
0.17601638649715
-0.00017724978593382
0.17603063892613
-0.00029743627283161
0.17605071646801
-0.00041655929667383
0.17607654119813
-0.00053454979643937
0.17610800817363
-0.00065101359456077
0.17614493104923
-0.00076486579300066
0.17618702953414
-0.00087492371440589
0.17623396894659
-0.00098063526843326
0.17628545571709
-0.0010828482950706
0.17634131908096
-0.001183490898969
0.17640156895832
-0.0012852556200921
0.17646636159197
-0.0013901447448336
0.17653595735929
-0.0014997010602547
0.17661061489456
-0.0016136584683609
0.17669057634189
-0.001732092320053
0.17677600485109
-0.0018533624025887
0.17686707114777
-0.0019784711865496
0.17696391991455
-0.0021058075351773
0.17706680965867
-0.0022391549582896
0.17717602487526
-0.0023757269198928
0.17729203238521
-0.0025227060507747
0.17741528764327
-0.0026722786633029
0.17754647806256
-0.0028372956177118
0.17768611001012
-0.0029988523093493
0.17783513584747
-0.0031832648492524
0.17799378402573
-0.0033489456051184
0.17816364009604
-0.003554415049175
0.17834375005816
-0.0037085432386477
-0.0039443477332869
0.17853768746815
0.16612929427538
-5.9682597373506e-05
0.16613677700178
-0.00018473252845289
0.16614959242041
-0.00031025170767969
0.1661676855164
-0.00043465240883752
0.1661909877053
-0.00055785200130362
0.16621940506277
-0.00067943096781134
0.16625276492806
-0.00079822567376379
0.16629080271491
-0.00091296151648819
0.16633320049082
-0.0010230330592165
0.16637967840888
-0.0011293262277452
0.16643007662088
-0.0012338891252123
0.16648440899341
-0.0013395880066059
0.16654283624321
-0.001448572008271
0.16660561598418
-0.0015624808146117
0.16667301434922
-0.0016810568464496
0.16674526996574
-0.0018043479493722
0.16682256596993
-0.0019306584192183
0.16690506584591
-0.0020609710747183
0.16699295165004
-0.0021936933511192
0.16708645638707
-0.0023326597068582
0.16718592974064
-0.0024752002846459
0.16729177629728
-0.0026285526183442
0.16740457610558
-0.0027850784822185
0.16752489500672
-0.0029576145292931
0.16765348086416
-0.0031274381770183
0.16779106106832
-0.0033208450635709
0.16793829857373
-0.0034961831206062
0.16809636745858
-0.0037124839440325
0.16826502767467
-0.0038772034645736
-0.0041264522909619
0.16844713222131
0.15680499045983
-6.1644381873056e-05
0.15681156156015
-0.00019130364444747
0.15682288315865
-0.00032157332191695
0.15683890920196
-0.00045067846777172
0.15685958022404
-0.00057852303872764
0.15688481317262
-0.0007046639314707
0.15691444954026
-0.00082786205607567
0.1569482415887
-0.00094675357926712
0.1569858900298
-0.0010606815142075
0.15702713043261
-0.0011705666441016
0.15707181522663
-0.0012785739323725
0.15711996206025
-0.0013877348530746
0.15717173554991
-0.0015003455104234
0.157227389258
-0.0016181345349466
0.15728719643975
-0.0017408640401271
0.15735139192969
-0.0018685434510101
0.15742018060493
-0.0019994471058195
0.15749372008428
-0.0021345105651662
0.15757223412801
-0.0022722074055691
0.15765593227149
-0.0024163578607625
0.1577452361464
-0.0025645041695869
0.15784049023359
-0.0027238067152418
0.15794240958169
-0.0028869978396792
0.15805143906274
-0.0030666440194515
0.15816858326254
-0.0032445823856925
0.15829434000671
-0.0034466018165174
0.15842983123329
-0.0036316743559136
0.15857580532399
-0.0038584580434718
0.15873279233581
-0.0040341904851421
-0.0042965335057591
0.15890287354058
0.14800400042466
-6.3293891002806e-05
0.14800964746218
-0.00019695069752103
0.14801944901585
-0.00033137489111154
0.14803336725965
-0.00046459672682333
0.14805135117157
-0.00059650696542594
0.14807332791323
-0.00072664068742928
0.14809915304448
-0.00085368720103433
0.14812859616105
-0.0009761967090024
0.14816137749529
-0.0010934628609904
0.14819724865983
-0.0012064378206895
0.14823607432212
-0.0013173996061954
0.14827787503516
-0.0014295355772777
0.14832281741789
-0.0015452879039133
0.14837114926153
-0.0016664663890904
0.14842314869549
-0.0017928634842762
0.14847904683627
-0.0019244416017432
0.14853906898478
-0.002059469263969
0.14860336948294
-0.0021988110726781
0.14867221303057
-0.0023410509621896
0.14874579091365
-0.0024899357524796
0.14882459551717
-0.0026433087813199
0.14890891950736
-0.0028081307132481
0.14899961235805
-0.0029776906977678
0.14909701097151
-0.003164042639973
0.14920237886765
-0.0033499502886174
0.14931599833604
-0.0035602212915603
0.14943945464107
-0.0037551306675916
0.14957306306252
-0.0039920664716936
0.14971816642064
-0.0041792938502953
-0.0044544193234087
0.14987605222982
0.13969695864028
-6.4635286156092e-05
0.13970168697521
-0.00020167904868839
0.13970997161475
-0.00033965954679114
0.13972178198955
-0.00047640711718907
0.13973707423068
-0.00061179922130273
0.13975578436458
-0.00074535083524138
0.13977778136793
-0.0008756842173613
0.13980285223085
-0.0010012675840356
0.13983073715442
-0.0011213477957806
0.13986120399809
-0.0012369046748523
0.13989412847184
-0.0013503240897634
0.13992953233609
-0.0014649394508311
0.13996758049501
-0.0015833360716864
0.1400085131988
-0.0017073991014197
0.14005260887687
-0.0018369591705666
0.14010009612203
-0.0019719288548708
0.14015121541666
-0.0021105885662589
0.14020612384875
-0.0022537195121389
0.14026511771907
-0.0024000448394826
0.14032838333212
-0.0025532013720985
0.1403964670236
-0.0027113924788925
0.1404696337169
-0.0028812974121476
0.140548838863
-0.0030568958489573
0.14063435274704
-0.0032495565286532
0.14072765857357
-0.0034432561194366
0.14082889379678
-0.0036614565188535
0.14094007387152
-0.0038663107464362
0.14106111704197
-0.0041131096465079
0.14119416148458
-0.0043123382978344
-0.0045998812938005
0.14133962344843
0.1318561470549
-6.5677627780036e-05
0.13185997792772
-0.0002055099404041
0.13186677536057
-0.0003464569985374
0.13187651458876
-0.00048614636336837
0.13188915741654
-0.00062444206576845
0.13190464742703
-0.0007608408610752
0.13192286625125
-0.0008939030555119
0.13194361759825
-0.0010220189436667
0.13196666120235
-0.001144391411294
0.13199178051903
-0.0012620240019417
0.13201886050576
-0.0013774040860081
0.13204792193647
-0.0014940008904163
0.13207912345983
-0.0016145376033671
0.13211269575039
-0.0017409713999326
0.13214891155482
-0.0018731749825874
0.13218799921653
-0.0020110165239071
0.13223020492695
-0.0021527942836666
0.13227569906324
-0.0022992136550812
0.13232478896376
-0.0024491347462248
0.13237768172383
-0.0026060941378831
0.13243493574202
-0.0027686465022206
0.13249684517044
-0.0029432068450707
0.13256438922687
-0.0031244399092379
0.13263788409228
-0.0033230513973032
0.13271886967978
-0.0035242417096525
0.1328075464936
-0.003750133335037
0.1329061586649
-0.0039649229200588
0.13301452908375
-0.0042214800679997
0.13313551114805
-0.0044333203655962
-0.0047326115231236
0.13326824137213
0.12445540136242
-6.6432671636674e-05
0.12445836806517
-0.0002084766684682
0.12446373182127
-0.00035182078049523
0.1244714698238
-0.00049388439069552
0.12448154617736
-0.00063451844236081
0.12449391058483
-0.00077320528965549
0.12450845769902
-0.00090845018889959
0.12452500869756
-0.0010385699596664
0.12454334353787
-0.0011627262675015
0.12456325952682
-0.0012819400055075
0.12458464721524
-0.0013987917879783
0.12460752085534
-0.0015168745432833
0.12463202747041
-0.0016390442305538
0.12465838448706
-0.0017673284282414
0.12468685506302
-0.001901645569801
0.12471766926136
-0.0020418307331519
0.12475107133587
-0.0021861963686829
0.12478725520133
-0.0023353975306009
0.12482651447915
-0.0024883940335566
0.12486910801432
-0.0026486876818955
0.12491554165082
-0.0028150801467757
0.1249662288666
-0.0029938940680384
0.1250220196714
-0.0031802307203098
0.12508352179598
-0.0033845535272482
0.12515194777731
-0.0035926676955221
0.12522810898537
-0.0038262945469901
0.12531358750126
-0.0040504014395173
0.12540924908551
-0.004317141655999
0.12551786000642
-0.0045419312910385
-0.0048531481555039
0.12563839663236
0.11747002705538
-6.6915977621656e-05
0.11747216986436
-0.00021061951447759
0.1174761712805
-0.00035582223497668
0.11748200484004
-0.00049971798755914
0.1174896339545
-0.00064214759209143
0.1174990117706
-0.00078258313869889
0.11751004293002
-0.00091948137894562
0.1175225658315
-0.0010510928897094
0.11753638433239
-0.0011765447951573
0.11755131137643
-0.0012968670748639
0.11756724187636
-0.0014147223120361
0.11758417536482
-0.0015338080549803
0.11760224049722
-0.0016571093854659
0.11762163147433
-0.0017867194273071
0.11764260074668
-0.001922614863597
0.1176653747482
-0.0020646047556376
0.11769019961939
-0.0022110212602974
0.11771728950934
-0.0023624874403476
0.11774692083752
-0.0025180253807433
0.1177794091714
-0.0026811760338215
0.11781517047418
-0.002850841466473
0.11785479468593
-0.0030335182953925
0.11789884317504
-0.0032242792236874
0.11794851473024
-0.0034342250953253
0.11800413290405
-0.0036482858809028
0.11806829339954
-0.0038904550528532
0.1181397513277
-0.0041218593771527
0.11822361545472
-0.0044010057921021
0.11831650882519
-0.0046348246708631
-0.0049652453397981
0.11842860599814
0.11087672687416
-6.7157996386029e-05
0.11087810388495
-0.00021199657838154
0.11088083129411
-0.00035854969917415
0.1108848709242
-0.00050375767168278
0.11089018907872
-0.00064746579841028
0.11089674699378
-0.00078914110300189
0.11090446066555
-0.00092719509748124
0.11091318487287
-0.0010598171416373
0.11092274447807
-0.0011861044431209
0.11093296276725
-0.0013070854053601
0.11094373503456
-0.0014254946194745
0.11095503980798
-0.0015451128676203
0.11096698763668
-0.0016690572526007
0.11097974337203
-0.0017994752004435
0.11099355630822
-0.001936427836937
0.11100863569599
-0.0020796841799129
0.11102524695485
-0.0022276325548978
0.11104358907723
-0.0023808295975702
0.11106396023227
-0.0025383965694564
0.1110866622245
-0.0027038780583174
0.11111210288127
-0.0028762821537735
0.11114093276273
-0.0030623482054643
0.11117351260891
-0.0032568590964335
0.11121153432154
-0.003472246832487
0.11125427675165
-0.003691028333497
0.1113068644288
-0.0039430427504215
0.11136355026381
-0.0041785452307066
0.11143879353892
-0.004476249084304
0.1115098803645
-0.0047059115128124
-0.0050733048289706
0.11161793983568
0.10465350955156
-6.7201638860623e-05
0.10465422292865
-0.00021271002567896
0.10465579150652
-0.00036011834854687
0.10465817066267
-0.00050613689808061
0.10466132434359
-0.00065061954729425
0.10466521166237
-0.00079302848726507
0.10466978455053
-0.00093176804877511
0.10467495552891
-0.00106498818116
0.1046805768187
-0.0011917257924543
0.10468646036988
-0.0013129690147905
0.10469247145154
-0.0014315057583555
0.10469854516522
-0.00155118663766
0.10470476167505
-0.0016752738180319
0.10471125507467
-0.0018059686549363
0.10471829216254
-0.0019434649789374
0.10472607135792
-0.0020874634285553
0.10473491553986
-0.0022364767891055
0.10474496834342
-0.0023908824520884
0.10475661666738
-0.0025500449427322
0.10476999895997
-0.0027172603980751
0.1047857305498
-0.0028920137882681
0.10480412035972
-0.0030807380571515
0.10482600564968
-0.0032787444252408
0.10485224459499
-0.0034984858136637
0.10488305886316
-0.0037218426345015
0.10492202046808
-0.0039820043849628
0.10496528739293
-0.0042218121819564
0.10502831057927
-0.0045392722942735
0.10508698741214
-0.004764588367163
-0.0051709936091523
0.10518467616917
0.098779552898688
-6.7036341852842e-05
0.098779705637335
-0.00021286284606436
0.098780203461654
-0.00036061625523454
0.098781094068181
-0.00050702758563956
0.098782342233831
-0.00065186779194769
0.098783827722891
-0.00079451405324601
0.098785512575654
-0.00093345297662236
0.098787336837912
-0.0010668125170649
0.098789222868019
-0.0011936118951087
0.098791047926765
-0.0013147941452855
0.098792669979857
-0.0014331278825394
0.098793957438711
-0.0015524741670643
0.098794917745246
-0.0016762341945418
0.09879562087157
-0.0018066718506541
0.098796323726773
-0.0019441679027936
0.098797215959245
-0.0020883557288102
0.098798689632641
-0.0022379505290596
0.098800854252271
-0.0023930471366522
0.098804224602804
-0.0025534153558971
0.098808731772854
-0.0027217676277796
0.098815261815108
-0.0028985438864728
0.098823474329798
-0.0030889506237098
0.098835373420318
-0.003290643563375
0.09884984549573
-0.0035129579324709
0.098871473827823
-0.0037434710056402
0.098895725607849
-0.0040062561992985
0.098932443020374
-0.0042585296240411
0.098970077999667
-0.0045769072991437
0.099026359948867
-0.0048208703395205
0.099143741639233
-0.0052883753238649
0.39509764374831
0.0045788304855692
0.39068197017042
0.004415673560786
0.38643364522936
0.0042483249243159
0.38235675319328
0.0040768920194011
0.3784552419411
0.0039015112355712
0.37473293113054
0.0037223107938266
0.37119351220643
0.0035394189073439
0.36784054488014
0.0033529673093134
0.3646774544939
0.0031630903692075
0.36170753040832
0.0029699240682928
0.35893392545769
0.0027736049332633
0.35635965392973
0.0025742715103208
0.35398758817562
0.0023720657363739
0.35182045176221
0.0021671363953666
0.34986081061147
0.0019596411325966
0.34811106149589
0.0017497490971107
0.34657341937601
0.0015376421012909
0.34524990402289
0.0013235153341919
0.34414232612939
0.0011075778744311
0.34325227514154
0.00089005096839947
0.34258110495905
0.00067117016289517
0.34212992028072
0.00045118465831979
0.34189953400129
0.00023038625923609
0.34188998073477
9.5532458824375e-06
0.34210285690272
-0.00021287618878478
0.34253770467052
-0.00043484778909656
0.3431943878252
-0.00065668317618977
0.34407255957908
-0.00087817177584521
0.34517161578035
-0.0010990562234106
0.34649069086912
-0.0013190751113398