/*--------------------------------*- C++ -*----------------------------------*\
| =========                 |                                                 |
| \\      /  F ield         | OpenFOAM: The Open Source CFD Toolbox           |
|  \\    /   O peration     | Version:  2112                                  |
|   \\  /    A nd           | Website:  www.openfoam.com                      |
|    \\/     M anipulation  |                                                 |
\*---------------------------------------------------------------------------*/
FoamFile
{
    version     2.0;
    format      ascii;
    arch        "LSB;label=32;scalar=64";
    class       volVectorField;
    location    "7";
    object      U;
}
// * * * * * * * * * * * * * * * * * * * * * * * * * * * * * * * * * * * * * //

dimensions      [0 1 -1 0 0 0 0];

internalField   nonuniform List<vector> 
22000
(
(1.000000916626 -2.4584035199168e-05 0)
(1.0000254502642 -7.404737742362e-05 0)
(1.000072737865 -0.00012334402549911 0)
(1.0001437542616 -0.00017242976871745 0)
(1.000238968806 -0.00022138310078156 0)
(1.0003583193441 -0.00027012260069863 0)
(1.0005014508637 -0.00031837585891354 0)
(1.0006679058564 -0.00036586123933222 0)
(1.000857195524 -0.00041252047522219 0)
(1.0010689464262 -0.00045871874471107 0)
(1.0013030545899 -0.00050513421400205 0)
(1.0015598469717 -0.00055260773152396 0)
(1.001840005115 -0.00060175018051349 0)
(1.0021445126664 -0.00065298313406671 0)
(1.0024743714851 -0.00070622192189732 0)
(1.0028306184994 -0.0007614580918862 0)
(1.0032140375275 -0.00081821742299049 0)
(1.0036255022516 -0.00087681147856679 0)
(1.0040656383183 -0.00093676102094536 0)
(1.0045355485768 -0.00099929156515894 0)
(1.005036035513 -0.0010633915787597 0)
(1.00556877568 -0.0011314379498596 0)
(1.0061346038072 -0.0012003101012483 0)
(1.0067356076713 -0.0012745052798737 0)
(1.0073718902289 -0.0013462932070185 0)
(1.0080456461237 -0.0014255932932323 0)
(1.0087552971825 -0.0014954286396805 0)
(1.0095033493625 -0.0015787516565063 0)
(1.0102856408913 -0.0016390708365993 0)
(1.0111062164708 -0.0017284048312072 0)
(1.0000003810163 -7.2352257588926e-05 0)
(1.00002493613 -0.00021819184398677 0)
(1.0000725761936 -0.00036371707329819 0)
(1.0001441778329 -0.00050870372161094 0)
(1.000240237235 -0.00065333437846935 0)
(1.0003607393129 -0.00079733298121008 0)
(1.0005053376502 -0.00093985187475949 0)
(1.0006735501221 -0.0010800087482502 0)
(1.0008648177031 -0.0012175923064208 0)
(1.0010787181637 -0.0013536725919061 0)
(1.0013150818007 -0.0014902827451321 0)
(1.0015742396017 -0.0016299562859596 0)
(1.0018568277065 -0.0017745495749028 0)
(1.0021639010856 -0.001925331746246 0)
(1.0024963941136 -0.0020820597664321 0)
(1.0028554804647 -0.0022446778657551 0)
(1.0032417765557 -0.0024117808079045 0)
(1.0036564079696 -0.0025842550275859 0)
(1.0040996528606 -0.0027607560744597 0)
(1.0045731349594 -0.0029448855531985 0)
(1.0050769855329 -0.0031338486518024 0)
(1.0056139446811 -0.0033345546793789 0)
(1.0061835096182 -0.0035381473679505 0)
(1.0067898613125 -0.0037574718655268 0)
(1.0074303784361 -0.0039704534669763 0)
(1.0081113566639 -0.0042051974838338 0)
(1.008825665027 -0.0044133807412257 0)
(1.0095839793299 -0.0046598854876832 0)
(1.0103708423137 -0.0048413998583689 0)
(1.0112070131749 -0.0051046140534263 0)
(1.0000003967785 -0.00011821423955228 0)
(1.0000259314015 -0.00035688808476434 0)
(1.0000754124911 -0.0005952259235566 0)
(1.0001496348521 -0.00083271778197629 0)
(1.0002490224925 -0.0010695981414583 0)
(1.0003735269614 -0.0013053643477227 0)
(1.0005227636621 -0.0015385658066027 0)
(1.0006962130476 -0.0017676912126044 0)
(1.0008932365784 -0.0019923427743984 0)
(1.0011133601079 -0.0022142681713246 0)
(1.0013563183912 -0.0024368376085451 0)
(1.0016224400082 -0.002664281528514 0)
(1.0019122790088 -0.002899708470966 0)
(1.0022269804416 -0.0031452561687654 0)
(1.0025673624501 -0.0034005209487509 0)
(1.0029347909115 -0.003665416890576 0)
(1.0033296263001 -0.0039375837779667 0)
(1.0037533620396 -0.0042185141491484 0)
(1.0042057451545 -0.0045059606299954 0)
(1.0046891511793 -0.0048059789073535 0)
(1.0052026579846 -0.0051139343745988 0)
(1.0057505530431 -0.0054414319789062 0)
(1.0063302129768 -0.0057737782263212 0)
(1.0069489848473 -0.0061324669146398 0)
(1.007599870437 -0.0064808686729917 0)
(1.008295696087 -0.0068657826224786 0)
(1.0090201006914 -0.0072070878085262 0)
(1.0097975382999 -0.0076124381662035 0)
(1.0105927417725 -0.0079107613235385 0)
(1.0114565803626 -0.0083449152893157 0)
(1.0000003963255 -0.00016318335373042 0)
(1.0000270408516 -0.00049306867584283 0)
(1.0000787339609 -0.00082252140497262 0)
(1.0001562593871 -0.0011506687075299 0)
(1.0002599858109 -0.0014777933054259 0)
(1.0003897999378 -0.0018031652093945 0)
(1.0005452282109 -0.0021247219288914 0)
(1.0007256782395 -0.0024403145133339 0)
(1.0009303956473 -0.0027493439694099 0)
(1.0011588365046 -0.0030542236779184 0)
(1.00141060761 -0.0033596443134655 0)
(1.0016860397323 -0.0036715377767601 0)
(1.0019855760777 -0.0039942630645014 0)
(1.0023104857066 -0.0043308561075141 0)
(1.0026614252561 -0.0046807474547149 0)
(1.0030400238483 -0.0050438659490739 0)
(1.0034462951816 -0.0054168613515527 0)
(1.0038822374707 -0.0058018947544289 0)
(1.0043468853519 -0.0061957159358591 0)
(1.004843634146 -0.0066069391654179 0)
(1.0053701472255 -0.0070289006106829 0)
(1.0059327885983 -0.0074781433965399 0)
(1.0065260892154 -0.007933843904082 0)
(1.0071616218541 -0.0084266749035073 0)
(1.0078265255892 -0.008904955756231 0)
(1.0085423654162 -0.0094351556524141 0)
(1.0092804127754 -0.0099043818096128 0)
(1.0100836701437 -0.010464729236629 0)
(1.0108902143591 -0.010875400125089 0)
(1.0117917643968 -0.01147837811137 0)
(1.0000003927377 -0.0002074564242362 0)
(1.0000283007457 -0.00062749836398983 0)
(1.0000825325546 -0.0010470097210379 0)
(1.0001638678164 -0.0014646129840247 0)
(1.0002726239539 -0.0018806191338723 0)
(1.0004086245748 -0.0022940611356835 0)
(1.00057129649 -0.0027022336731996 0)
(1.0007599613303 -0.0031023115915131 0)
(1.0009737203385 -0.0034934557433515 0)
(1.0012119414575 -0.0038787317684251 0)
(1.001474070145 -0.0042641544343561 0)
(1.0017604382764 -0.0046573992467641 0)
(1.0020713512738 -0.0050641042218679 0)
(1.0024082310644 -0.0054882557964932 0)
(1.002771536308 -0.0059291072983671 0)
(1.0031632140942 -0.0063866428152555 0)
(1.0035828519066 -0.0068564597368352 0)
(1.0040330474264 -0.0073414621187705 0)
(1.0045119703089 -0.0078372847393141 0)
(1.0050242245838 -0.0083552669259917 0)
(1.0055657854548 -0.0088865206805599 0)
(1.006145478453 -0.0094528728416263 0)
(1.0067544714728 -0.010027028409418 0)
(1.0074093471411 -0.010649503009166 0)
(1.0080903196108 -0.011252927855194 0)
(1.0088293441441 -0.011924617996345 0)
(1.009582978051 -0.012517661539218 0)
(1.0104164546329 -0.013230627009391 0)
(1.0112357425522 -0.013750538109661 0)
(1.0121821298859 -0.014522189848922 0)
(1.0000003844358 -0.0002511211164981 0)
(1.0000296366804 -0.00076052031801281 0)
(1.000086591727 -0.0012693283298884 0)
(1.0001720265452 -0.0017754995474862 0)
(1.0002862068216 -0.0022793426210771 0)
(1.0004288945199 -0.0027796352232348 0)
(1.0005994098356 -0.0032729904430675 0)
(1.0007969804238 -0.003755862526408 0)
(1.0010205419895 -0.004227129919624 0)
(1.0012693616724 -0.004690500713418 0)
(1.0015426981881 -0.0051533256747021 0)
(1.0018408850708 -0.0056250794506195 0)
(1.002164069487 -0.0061127163937955 0)
(1.0025138477188 -0.0066212334815562 0)
(1.0028904532856 -0.0071496915587228 0)
(1.0032961899438 -0.0076981692483934 0)
(1.0037301665386 -0.0082611369626788 0)
(1.0041956435814 -0.008842316390391 0)
(1.004689832689 -0.0094361046710345 0)
(1.0052186602558 -0.010056740017081 0)
(1.0057762556002 -0.010692910855433 0)
(1.0063741205265 -0.011372082074307 0)
(1.0069997726456 -0.012060153206555 0)
(1.0076752391806 -0.012808141522107 0)
(1.0083732012076 -0.013532394261823 0)
(1.0091369871228 -0.014342196804611 0)
(1.0099069677502 -0.015055486766048 0)
(1.0107730601968 -0.01591918402388 0)
(1.0116052933794 -0.016545918939202 0)
(1.0126010730695 -0.017486664425186 0)
(1.0000003694823 -0.0002941349555876 0)
(1.0000309578273 -0.00089206407398541 0)
(1.0000906520853 -0.0014894069657003 0)
(1.0001802272423 -0.0020832772967905 0)
(1.0002998965587 -0.0026739512949227 0)
(1.0004493633617 -0.0032599325359749 0)
(1.0006278394359 -0.0038371098486507 0)
(1.0008344570831 -0.004401167233992 0)
(1.0010679749703 -0.0049506532586178 0)
(1.0013275544581 -0.0054899062560301 0)
(1.0016122525562 -0.0060276246391492 0)
(1.0019224072881 -0.0065751401508747 0)
(1.0022579956829 -0.0071407620442302 0)
(1.0026208030072 -0.0077305578630534 0)
(1.0030108233844 -0.0083433774383315 0)
(1.0034307373239 -0.0089794278947188 0)
(1.0038791501485 -0.0096319747070909 0)
(1.0043600065606 -0.010305624612987 0)
(1.0048695262754 -0.010993421395419 0)
(1.0054149813026 -0.011712662741917 0)
(1.005988620178 -0.012449444137666 0)
(1.0066046502961 -0.013237183707435 0)
(1.0072468994438 -0.01403472137905 0)
(1.0079429111693 -0.014904125761897 0)
(1.0086577128722 -0.015745051952311 0)
(1.0094463078662 -0.016689613225319 0)
(1.0102323198311 -0.017519873772487 0)
(1.0111315740205 -0.018532400723309 0)
(1.0119759711907 -0.019264037010875 0)
(1.0130234275797 -0.020374172019976 0)
(1.0000003463765 -0.00033634032343825 0)
(1.0000321724281 -0.0010217002766554 0)
(1.0000944479328 -0.0017065729942207 0)
(1.0001879477194 -0.0023870549909576 0)
(1.0003128358424 -0.003063361877498 0)
(1.0004687647263 -0.0037337055862717 0)
(1.0006548418275 -0.0043932077112123 0)
(1.0008701082755 -0.0050367309203841 0)
(1.0011131426472 -0.005662444231713 0)
(1.0013830011066 -0.0062753015521263 0)
(1.0016785325359 -0.0068853583680282 0)
(1.0020000819697 -0.0075058589653913 0)
(1.0023474528817 -0.0081465047355062 0)
(1.0027226259313 -0.0088144898204653 0)
(1.0031253565131 -0.0095084351341718 0)
(1.0035587021901 -0.010228702835506 0)
(1.0040207718254 -0.010967281848037 0)
(1.004516172545 -0.011729715105153 0)
(1.0050401649708 -0.012507597262877 0)
(1.0056012976193 -0.013321406846178 0)
(1.0061900370683 -0.014154531314622 0)
(1.0068231372333 -0.015046565588458 0)
(1.007480955773 -0.015949170622156 0)
(1.0081962639193 -0.016935811220731 0)
(1.0089267967185 -0.017889347051607 0)
(1.0097388764016 -0.018965137467399 0)
(1.0105396882364 -0.019909286177642 0)
(1.0114710337951 -0.021068419729524 0)
(1.0123260009621 -0.021903425567132 0)
(1.0134254452779 -0.023182709542282 0)
(1.0000003138597 -0.00037749243550051 0)
(1.0000331920242 -0.0011487230633063 0)
(1.00009772285 -0.0019196868487327 0)
(1.0001946840709 -0.0026852887305022 0)
(1.0003241974144 -0.0034456588066728 0)
(1.0004858751521 -0.0041987028609541 0)
(1.000678729141 -0.0049387360111865 0)
(1.0009017174696 -0.0056597510044264 0)
(1.0011532433613 -0.0063594890220547 0)
(1.0014322627571 -0.0070435025420706 0)
(1.0017374192729 -0.007723209367502 0)
(1.0020690678805 -0.008413813897232 0)
(1.0024268461374 -0.0091264421660812 0)
(1.0028129287864 -0.0098694615987187 0)
(1.0032268511123 -0.010641249082734 0)
(1.0036720279793 -0.011442335915742 0)
(1.0041461146019 -0.012263377270227 0)
(1.0046543152365 -0.01311087659353 0)
(1.0051910346492 -0.013974917376759 0)
(1.0057659363087 -0.014879217995616 0)
(1.0063679383472 -0.015804424562216 0)
(1.0070159990702 -0.016796395217749 0)
(1.0076874754358 -0.017799684630063 0)
(1.0084197376565 -0.018899210375009 0)
(1.0091640401805 -0.019961346376266 0)
(1.0099970691089 -0.021164529183809 0)
(1.0108106524789 -0.022219642419048 0)
(1.0117716265143 -0.023522647081638 0)
(1.0126348763044 -0.024459851749033 0)
(1.013784964342 -0.025907224667403 0)
(1.0000002710186 -0.00041728817994813 0)
(1.0000339351237 -0.0012722358235005 0)
(1.0001002383556 -0.0021272836357687 0)
(1.0001999653481 -0.0029759776539132 0)
(1.00033320546 -0.0038183417128378 0)
(1.0004995422064 -0.0046519645629489 0)
(1.0006979052892 -0.0054703224244954 0)
(1.0009271809165 -0.0062664942889625 0)
(1.0011856102954 -0.0070377498757552 0)
(1.001472057619 -0.0077902199152023 0)
(1.0017849742111 -0.0085366846305542 0)
(1.0021247277984 -0.0092943439365923 0)
(1.0024908089685 -0.010075774591928 0)
(1.0028855770546 -0.01089055183469 0)
(1.0033083843978 -0.011736799540565 0)
(1.0037629629756 -0.012615217116883 0)
(1.0042465940555 -0.013515093017899 0)
(1.0047649715822 -0.014443879930329 0)
(1.0053118174901 -0.015390137057989 0)
(1.0058976626775 -0.016380799668768 0)
(1.0065102395465 -0.017393845472081 0)
(1.0071702008623 -0.018481307082103 0)
(1.0078526023082 -0.01958094369806 0)
(1.0085984887051 -0.020788826919844 0)
(1.0093538287138 -0.021955646448035 0)
(1.0102042245664 -0.023282053138307 0)
(1.0110278567171 -0.024445402079012 0)
(1.0120148585642 -0.025888967284561 0)
(1.0128835265936 -0.026927573245048 0)
(1.0140816395127 -0.028541034185162 0)
(1.0000002172825 -0.00045539389780164 0)
(1.0000343296338 -0.0013912343661264 0)
(1.0001017823253 -0.0023277096462563 0)
(1.000203371353 -0.0032568501427251 0)
(1.0003391648504 -0.0041785567453207 0)
(1.0005087281618 -0.0050900945640964 0)
(1.0007109269677 -0.0059840778995163 0)
(1.0009445883402 -0.006852634680098 0)
(1.0012078136158 -0.007692527725382 0)
(1.0014993845935 -0.0085104412117992 0)
(1.0018175839676 -0.0093205143195753 0)
(1.0021627927288 -0.010141961937105 0)
(1.0025343848447 -0.010988831760936 0)
(1.0029348865778 -0.011871927628994 0)
(1.0033635219186 -0.012789119869292 0)
(1.0038242812083 -0.013741259094676 0)
(1.0043141872787 -0.014716266487945 0)
(1.0048392769886 -0.015722488633096 0)
(1.0053928293766 -0.016747012040225 0)
(1.0059859207 -0.017819866491636 0)
(1.0066055730148 -0.018916560238017 0)
(1.0072734893976 -0.020095010174913 0)
(1.0079633112651 -0.021286761102584 0)
(1.0087186038211 -0.022598338099271 0)
(1.0094815410245 -0.023866089232543 0)
(1.0103448414304 -0.025311265298339 0)
(1.0111751806558 -0.026580388283106 0)
(1.0121837292046 -0.02816066813693 0)
(1.0130544672032 -0.029300299894351 0)
(1.0142970932701 -0.031076940924163 0)
(1.0000001527476 -0.00049147179657516 0)
(1.0000343179342 -0.0015046864290417 0)
(1.000102179239 -0.002519250449091 0)
(1.0002045508634 -0.0035255363008568 0)
(1.0003414891279 -0.0045233099399988 0)
(1.0005125516153 -0.0055095128976504 0)
(1.0007165599787 -0.0064758838777291 0)
(1.0009522976873 -0.0074135727319374 0)
(1.0012177534148 -0.0083188080859924 0)
(1.0015116369393 -0.0091987998119856 0)
(1.001832094767 -0.010069039420411 0)
(1.0021795176191 -0.010950756525351 0)
(1.0025532052059 -0.011859488245411 0)
(1.0029558225141 -0.012807268586842 0)
(1.0033865372201 -0.013791728106826 0)
(1.0038495223296 -0.014813835573875 0)
(1.0043416884432 -0.015860179763756 0)
(1.0048692375 -0.016939901726687 0)
(1.0054253017769 -0.018038741723891 0)
(1.0060211228621 -0.019189588328856 0)
(1.0066435777755 -0.020365825353276 0)
(1.0073146819983 -0.021630746054937 0)
(1.0080076814081 -0.022910545481285 0)
(1.0087673670469 -0.024321084516926 0)
(1.00953378824 -0.025686270598164 0)
(1.0104047953241 -0.02724557392457 0)
(1.0112379185344 -0.028618371144101 0)
(1.0122628835415 -0.030331113431923 0)
(1.0131319108776 -0.031571901392855 0)
(1.0144149868479 -0.033508069504031 0)
(1.0000000776255 -0.0005252019666204 0)
(1.0000338564614 -0.0016115963489886 0)
(1.0001012991408 -0.0027002373639599 0)
(1.0002032396958 -0.0037797162623168 0)
(1.0003397281484 -0.0048496572228316 0)
(1.0005103258449 -0.0059066844780634 0)
(1.0007138316196 -0.0069416566405004 0)
(1.0009490028536 -0.0079447309625172 0)
(1.0012137446882 -0.0089115818436183 0)
(1.0015067068943 -0.0098499176575609 0)
(1.0018259366873 -0.010776569158065 0)
(1.0021718285394 -0.011714763265779 0)
(1.0025436580964 -0.012681542688388 0)
(1.0029441912122 -0.013690151691183 0)
(1.0033726258948 -0.014738017175486 0)
(1.0038332266598 -0.01582617054754 0)
(1.0043229628933 -0.016939947370566 0)
(1.0048480015397 -0.018089140238906 0)
(1.0054016650403 -0.019258345071245 0)
(1.0059949441059 -0.020482962210694 0)
(1.0066151954914 -0.02173475164075 0)
(1.0072839632935 -0.023081647118538 0)
(1.0079751797363 -0.024445648451524 0)
(1.0087335287542 -0.025950430982106 0)
(1.0094986549103 -0.027409892237875 0)
(1.0103715512454 -0.029078613712142 0)
(1.0112029513493 -0.030553446678094 0)
(1.01223873523 -0.032394177442007 0)
(1.0131018484526 -0.033736853740357 0)
(1.0144210304846 -0.035828390947267 0)
(0.99999999238158 -0.00055629738000682 0)
(1.000032919762 -0.0017110531447892 0)
(1.0000990597214 -0.0028691331897914 0)
(1.0001992620985 -0.0040172445778554 0)
(1.0003335757228 -0.00515486617856 0)
(1.0005015766897 -0.0062783161073737 0)
(1.0007020614425 -0.007377577791888 0)
(1.0009337780454 -0.0084418134002141 0)
(1.0011945776216 -0.0094661307879409 0)
(1.0014830627986 -0.010458710493582 0)
(1.0017972198184 -0.011437702653923 0)
(1.0021374392405 -0.012428299491388 0)
(1.002503025564 -0.013449060513776 0)
(1.0028968004268 -0.014514403072445 0)
(1.0033180876074 -0.015621608556837 0)
(1.0037711395561 -0.016771692557885 0)
(1.0042531724866 -0.017948868915786 0)
(1.0047701056102 -0.019163390180764 0)
(1.0053158094353 -0.0203989912995 0)
(1.0059005991073 -0.021693132835319 0)
(1.0065129558558 -0.02301659913321 0)
(1.0071731735846 -0.024441016096419 0)
(1.007856948378 -0.025885622031892 0)
(1.0086075859281 -0.027480007896924 0)
(1.0093659596781 -0.029030974262223 0)
(1.0102343907915 -0.030804462708252 0)
(1.0110589463278 -0.032380237490293 0)
(1.0120996004691 -0.034344455178203 0)
(1.012952136226 -0.035790448939846 0)
(1.0143029614849 -0.0380329671554 0)
(0.99999989840327 -0.00058451797111472 0)
(1.0000314987574 -0.0018022777657024 0)
(1.0000954239978 -0.0030246117137219 0)
(1.0001925331757 -0.004236259664182 0)
(1.0003228763557 -0.0054365541580029 0)
(1.0004860531594 -0.0066215219309946 0)
(1.0006808771173 -0.0077802859514286 0)
(1.0009061018655 -0.008901021226035 0)
(1.0011595533083 -0.0099782660720203 0)
(1.0014397972021 -0.011020645509108 0)
(1.0017447968805 -0.012047604390223 0)
(1.0020749282444 -0.013086252568061 0)
(1.0024295777713 -0.014156673579864 0)
(1.0028115715891 -0.015274405853432 0)
(1.0032204573089 -0.016436663548412 0)
(1.0036603642947 -0.017644349556948 0)
(1.0041289496355 -0.018880738915106 0)
(1.004631669409 -0.020156306226655 0)
(1.0051633012832 -0.021454291530007 0)
(1.0057330770513 -0.022813667435552 0)
(1.006331224025 -0.024205027144415 0)
(1.0069760679357 -0.025702556744634 0)
(1.0076460681229 -0.027224412159259 0)
(1.0083820300272 -0.028903876731405 0)
(1.0091274945271 -0.030543982134033 0)
(1.0099846215297 -0.032417742474251 0)
(1.0107965376977 -0.03409395407652 0)
(1.011835812428 -0.036177305378897 0)
(1.0126725865182 -0.037728834013866 0)
(1.0140505238456 -0.040117970033545 0)
(0.9999997969267 -0.00060968255482852 0)
(1.0000296002375 -0.0018846589829282 0)
(1.0000904012469 -0.0031656167319515 0)
(1.0001830585522 -0.0044352654922438 0)
(1.0003076246463 -0.0056927926462078 0)
(1.0004637280615 -0.0069339506589363 0)
(1.0006502162441 -0.0081470255428138 0)
(1.0008658597004 -0.0093192218987682 0)
(1.0011084872154 -0.010444515125188 0)
(1.0013766344515 -0.011531944978065 0)
(1.0016682792774 -0.012602223285942 0)
(1.0019837655943 -0.013684312964434 0)
(1.0023226125937 -0.014799826653436 0)
(1.0026875935742 -0.015965356563734 0)
(1.0030785741473 -0.01717814779044 0)
(1.0034994477398 -0.018438879295445 0)
(1.0039485000095 -0.019730115304812 0)
(1.004430517756 -0.02106227895176 0)
(1.0049415247567 -0.02241855370749 0)
(1.0054893014513 -0.023838796430112 0)
(1.0060663821557 -0.02529431127886 0)
(1.0066885116508 -0.026860567135975 0)
(1.0073377704955 -0.028456513783704 0)
(1.0080515671744 -0.030216651521355 0)
(1.0087772542842 -0.031943901853882 0)
(1.0096157719598 -0.033913641475208 0)
(1.010408513931 -0.035690359565855 0)
(1.0114398355679 -0.03788874706556 0)
(1.0122550525962 -0.039548880626273 0)
(1.0136554424691 -0.042080471969066 0)
(0.9999996897664 -0.00063167417475192 0)
(1.0000272454834 -0.0019577722522807 0)
(1.0000840432216 -0.0032913951307983 0)
(1.0001709292526 -0.004613179440214 0)
(1.0002879563861 -0.0059221703242638 0)
(1.0004347846208 -0.0072138647054129 0)
(1.0006103100951 -0.0084757429943096 0)
(1.0008133268029 -0.0096940635458057 0)
(1.0010416916911 -0.010862253255742 0)
(1.0012939119778 -0.011989733699485 0)
(1.0015680153612 -0.013098453542302 0)
(1.0018642916252 -0.014219147717137 0)
(1.002182437413 -0.015374962051154 0)
(1.0025251111362 -0.016583461350162 0)
(1.0028925800369 -0.017842036082766 0)
(1.0032883915062 -0.019151023363908 0)
(1.0037116285256 -0.020492537155648 0)
(1.0041662232226 -0.021876657006628 0)
(1.0046497425736 -0.023286999015275 0)
(1.0051682077197 -0.024763625658073 0)
(1.0057169278869 -0.026279536386664 0)
(1.0063085913621 -0.027910113055131 0)
(1.0069295706854 -0.029577111962229 0)
(1.0076132558991 -0.03141360936599 0)
(1.0083116025735 -0.033226309860264 0)
(1.0091237616842 -0.035287945329144 0)
(1.0098900125657 -0.037165751180889 0)
(1.010906405408 -0.039475349702922 0)
(1.0116935475216 -0.041247993703539 0)
(1.0131114123166 -0.043918114792043 0)
(0.99999957850437 -0.00065044131945299 0)
(1.0000244695981 -0.0020213860521118 0)
(1.0000764416174 -0.0034015108605114 0)
(1.0001563131587 -0.00476935502286 0)
(1.0002641335141 -0.0061238243580831 0)
(1.0003995931922 -0.0074601795697037 0)
(1.0005616487604 -0.0087651338405417 0)
(1.0007491225147 -0.010024031262325 0)
(1.0009599216936 -0.011229771531391 0)
(1.001192522868 -0.012392121806732 0)
(1.0014450309539 -0.01353423156927 0)
(1.0017176552097 -0.014688512519841 0)
(1.0020103035457 -0.015879642464171 0)
(1.0023254578214 -0.017126072614766 0)
(1.0026638522144 -0.018425457822141 0)
(1.0030285888862 -0.019777684347947 0)
(1.003419683967 -0.021164685274509 0)
(1.0038400633609 -0.022595914935573 0)
(1.0042890711643 -0.024055921404676 0)
(1.0047707366833 -0.025584297889361 0)
(1.0052834936021 -0.027156736471356 0)
(1.005836651475 -0.02884715967568 0)
(1.0064213244506 -0.030582172611162 0)
(1.0070665674897 -0.03249076238518 0)
(1.0077293495772 -0.034387385875074 0)
(1.0085069716337 -0.036537045488739 0)
(1.0092386570116 -0.038516943828774 0)
(1.0102326966057 -0.040934227892603 0)
(1.0109844633182 -0.042824029292599 0)
(1.0124142260178 -0.045628902741443 0)
(0.99999946546668 -0.00066599502107188 0)
(1.0000213176294 -0.0020754570223629 0)
(1.0000677175096 -0.0034958394122441 0)
(1.0001394403539 -0.0049035774040216 0)
(1.0002365246003 -0.0062974407541572 0)
(1.0003586859984 -0.0076724724816824 0)
(1.0005049476979 -0.0090146606345587 0)
(1.0006741624732 -0.010308471693266 0)
(1.0008643069668 -0.011546303939282 0)
(1.0010738279042 -0.012738234643627 0)
(1.0013009268323 -0.01390857049049 0)
(1.0015457047755 -0.015091298875069 0)
(1.0018082931229 -0.016312611548024 0)
(1.0020909396485 -0.017591769263073 0)
(1.0023948807544 -0.018926792736125 0)
(1.0027226993073 -0.020317045335206 0)
(1.003075429032 -0.021744514148273 0)
(1.0034548945828 -0.023217813599001 0)
(1.0038623600931 -0.024722845821154 0)
(1.0042997305866 -0.026298179002169 0)
(1.0047687604568 -0.027923052493123 0)
(1.0052752384463 -0.029668757053247 0)
(1.0058152044987 -0.031468560583889 0)
(1.006413377 -0.033445001357541 0)
(1.007031745858 -0.035423922432856 0)
(1.0077661816352 -0.037657952285593 0)
(1.0084544930722 -0.039741159614928 0)
(1.0094182534061 -0.042263091367731 0)
(1.0101267481176 -0.044275441464693 0)
(1.0115620302789 -0.047211598062331 0)
(0.9999993524398 -0.00067840009489842 0)
(1.0000178398481 -0.0021201089020875 0)
(1.0000580114919 -0.0035745421829038 0)
(1.0001205799896 -0.0050160335994979 0)
(1.000205564554 -0.0064432162489141 0)
(1.0003126998096 -0.0078509369894209 0)
(1.0004410795078 -0.0092245108713219 0)
(1.0005895874517 -0.010547568984249 0)
(1.0007562803499 -0.011812032068971 0)
(1.0009395752105 -0.013028243488022 0)
(1.0011377774529 -0.014221604321375 0)
(1.0013508585384 -0.015427576109692 0)
(1.0015791601812 -0.016673826315372 0)
(1.0018246555371 -0.0179803812455 0)
(1.0020890702026 -0.019345694116777 0)
(1.0023744442847 -0.020768612132479 0)
(1.0026828277482 -0.022231313371154 0)
(1.0030149498987 -0.023741516528312 0)
(1.0033739850798 -0.025286664570267 0)
(1.0037597522944 -0.026904075866221 0)
(1.0041772687046 -0.028576931001494 0)
(1.0046289524443 -0.030373351073902 0)
(1.0051155515756 -0.032234258296658 0)
(1.0056579015133 -0.034274501121692 0)
(1.0062224515797 -0.036333514203415 0)
(1.0069045344576 -0.038648691385518 0)
(1.0075398039921 -0.040835883659319 0)
(1.0084644535383 -0.043460167138015 0)
(1.0091213759837 -0.045601193956929 0)
(1.0105554591465 -0.048666240934043 0)
(0.99999924003559 -0.00068776344249003 0)
(1.0000140760481 -0.0021555895183017 0)
(1.0000474545432 -0.0036379951966832 0)
(1.0001000139889 -0.0051072273635778 0)
(1.0001717299367 -0.0065617706928918 0)
(1.0002623320735 -0.007996285927582 0)
(1.0003709899456 -0.0093954707550746 0)
(1.0004966307703 -0.010742176028984 0)
(1.0006374149226 -0.012027889248371 0)
(1.0007917366656 -0.013263177112009 0)
(1.0009579915768 -0.0144744500971 0)
(1.0011359873871 -0.015698516161633 0)
(1.0013262167187 -0.016964441031254 0)
(1.0015303603143 -0.018292990394994 0)
(1.0017505584561 -0.019683076904649 0)
(1.0019883760164 -0.021133141481195 0)
(1.0022467573247 -0.022625563974074 0)
(1.0025255261939 -0.024167363615133 0)
(1.002829495564 -0.025747327292918 0)
(1.0031567666953 -0.027401886826699 0)
(1.0035150626859 -0.029117657133463 0)
(1.0039041750449 -0.030960357561096 0)
(1.0043285082972 -0.032877650753035 0)
(1.0048064818939 -0.034978247041411 0)
(1.005307248053 -0.037113463911129 0)
(1.0059277130894 -0.039508005405533 0)
(1.0064993046971 -0.041797263296612 0)
(1.0073744781035 -0.044522767418903 0)
(1.0079701168024 -0.046797201965446 0)
(1.0093960405309 -0.049987737229907 0)
(0.99999912731928 -0.00069425050030115 0)
(1.0000100730702 -0.0021822842015612 0)
(1.0000361727789 -0.0036867318523729 0)
(1.0000780080351 -0.0051778081940415 0)
(1.0001354956756 -0.0066538822342569 0)
(1.0002083213233 -0.008109453076447 0)
(1.0002957149323 -0.0095286387415426 0)
(1.0003966377939 -0.010893524638863 0)
(1.0005093867327 -0.0121951930517 0)
(1.0006323684221 -0.013444383774538 0)
(1.0007640816844 -0.014668460189122 0)
(1.0009041384288 -0.015905456319998 0)
(1.0010530803422 -0.017185780855962 0)
(1.0012122660797 -0.018530889231929 0)
(1.0013840993254 -0.019940158025352 0)
(1.0015698045111 -0.021411712417592 0)
(1.0017729729488 -0.022928043170971 0)
(1.0019929239851 -0.0244957902592 0)
(1.0022355391509 -0.026104563556272 0)
(1.0024980214844 -0.027790845472686 0)
(1.0027895784642 -0.029543168798532 0)
(1.0031089815292 -0.031427343990497 0)
(1.0034619873254 -0.033393935574722 0)
(1.0038675497257 -0.035551901336554 0)
(1.0042939455129 -0.037754912097957 0)
(1.0048440115949 -0.040230196501849 0)
(1.0053411894398 -0.0426114785306 0)
(1.0061557723249 -0.045443270051747 0)
(1.0066799497242 -0.047843255078891 0)
(1.0080831193912 -0.051152789445411 0)
(0.99999901834904 -0.00069816394289495 0)
(1.000006003347 -0.0022009977356748 0)
(1.0000245295558 -0.003721872995845 0)
(1.0000550842078 -0.0052290138139432 0)
(1.0000975072264 -0.0067207814445912 0)
(1.0001514604864 -0.0081916319231921 0)
(1.0002162949331 -0.0096252654615572 0)
(1.0002910402635 -0.011003094425828 0)
(1.0003741366011 -0.012315768990793 0)
(1.0004639529593 -0.013573979736026 0)
(1.0005590478145 -0.01480584953227 0)
(1.0006587870339 -0.016050440327161 0)
(1.0007637002534 -0.017339578675329 0)
(1.0008748317353 -0.01869543958456 0)
(1.0009947521421 -0.020118121418133 0)
(1.0011244895316 -0.021605452531234 0)
(1.0012680361923 -0.023140110888689 0)
(1.0014245763778 -0.024728322847806 0)
(1.001600435237 -0.026360126577753 0)
(1.0017927165061 -0.028072619165054 0)
(1.0020109225676 -0.02985474581913 0)
(1.0022541719103 -0.031775300605443 0)
(1.0025279770303 -0.033782285816148 0)
(1.0028529349853 -0.035995378223292 0)
(1.003196135009 -0.038251644068434 0)
(1.0036644138692 -0.040815854552641 0)
(1.0040802301132 -0.043260822590228 0)
(1.0048189804708 -0.046233857076411 0)
(1.0052757175425 -0.048702833900031 0)
(1.006617483146 -0.052195357647331 0)
(0.99999890854655 -0.00070005750602435 0)
(1.0000021108558 -0.0022133929337939 0)
(1.0000131754179 -0.0037461132613476 0)
(1.0000322602485 -0.0052644978255306 0)
(1.0000589931316 -0.0067669171745138 0)
(1.0000929812975 -0.0082477233328968 0)
(1.00013371479 -0.009690499375515 0)
(1.0001807523908 -0.011076239535735 0)
(1.0002329736917 -0.012395413711164 0)
(1.0002886280343 -0.01365864957412 0)
(1.0003460062814 -0.014894673246053 0)
(1.000403998572 -0.016143108861581 0)
(1.0004628832381 -0.017437041825261 0)
(1.0005233226485 -0.018799182394925 0)
(1.0005880789866 -0.020230875165096 0)
(1.0006582314008 -0.021729712835304 0)
(1.0007382584916 -0.023279478699202 0)
(1.0008274486123 -0.02488558368432 0)
(1.0009324453318 -0.026539460116985 0)
(1.0010500846425 -0.028277734749276 0)
(1.0011905768727 -0.030090635830435 0)
(1.0013514243167 -0.0320496358993 0)
(1.0015423279185 -0.034098453110406 0)
(1.0017757622547 -0.036374366882456 0)
(1.0020342714878 -0.038679465869868 0)
(1.0023946749943 -0.04136308759996 0)
(1.0027329381844 -0.04383818200409 0)
(1.0033493388655 -0.047067673426566 0)
(1.0037659032352 -0.049463432289916 0)
(1.0050061423567 -0.053523804116863 0)
(0.99999878979985 -0.00070121339599875 0)
(0.99999783959288 -0.0022236168511999 0)
(1.0000014645293 -0.0037675869081531 0)
(1.0000091049666 -0.0052974337033615 0)
(1.0000202003953 -0.006811261073012 0)
(1.0000343553801 -0.0083029313175314 0)
(1.0000508996731 -0.0097554059521338 0)
(1.0000690061653 -0.011149283641208 0)
(1.0000882223776 -0.012474808297343 0)
(1.0001075700332 -0.013742833841674 0)
(1.000125686992 -0.014983345777143 0)
(1.0001407793952 -0.016237429997568 0)
(1.0001524554009 -0.017540103550943 0)
(1.0001606754955 -0.018914415295653 0)
(1.0001679055984 -0.020362864215176 0)
(1.0001753494807 -0.021881801636154 0)
(1.0001877818707 -0.023456867005165 0)
(1.0002051455329 -0.025091673435714 0)
(1.0002343215677 -0.026782432164491 0)
(1.0002722253149 -0.02856297854504 0)