/*--------------------------------*- C++ -*----------------------------------*\
| =========                 |                                                 |
| \\      /  F ield         | OpenFOAM: The Open Source CFD Toolbox           |
|  \\    /   O peration     | Version:  2112                                  |
|   \\  /    A nd           | Website:  www.openfoam.com                      |
|    \\/     M anipulation  |                                                 |
\*---------------------------------------------------------------------------*/
FoamFile
{
    version     2.0;
    format      ascii;
    arch        "LSB;label=32;scalar=64";
    class       surfaceScalarField;
    location    "14.5";
    object      phi;
}
// * * * * * * * * * * * * * * * * * * * * * * * * * * * * * * * * * * * * * //

dimensions      [0 3 -1 0 0 0 0];

oriented        oriented;

internalField   nonuniform List<scalar> 
43645
(
0.39512385039466
-4.9773625371751e-06
0.3951386882435
-1.4837886636717e-05
0.39516333501371
-2.4646811058821e-05
0.39519778742635
-3.4452454858448e-05
0.39524202695387
-4.4239569954364e-05
0.39529602373095
-5.3996819145926e-05
0.39535975103223
-6.3727342623929e-05
0.39543319518659
-7.3444194878081e-05
0.39551634646866
-8.3151321648111e-05
0.39560918353412
-9.2837104123128e-05
0.39571165222447
-0.00010246872805591
0.39582366507684
-0.0001120128891611
0.39594509639335
-0.0001214313523654
0.39607580830515
-0.00013071194679254
0.39621564067703
-0.0001398324059935
0.39636445296062
-0.00014881231693635
0.3965220752849
-0.00015762235683922
0.3966883837199
-0.00016630846692367
0.39686317579863
-0.00017479210999598
0.39704634428279
-0.00018316851493157
0.39723759748869
-0.00019125323617318
0.39743687333796
-0.00019927587922252
0.39764370463207
-0.00020683132371468
0.39785818466751
-0.00021448006487151
0.39807950349388
-0.00022131885561257
0.39830817693699
-0.00022867347233248
0.39854266370697
-0.00023448679913946
0.39878450220784
-0.00024183852975443
0.3990305080255
-0.00024600584597461
-0.00025405874596445
0.39928456674264
0.37294716318201
-9.5858613907963e-06
0.37296098594391
-2.8660710598942e-05
0.37298416075513
-4.782168548484e-05
0.37301668268981
-6.6974452703839e-05
0.37305853564368
-8.6092586226492e-05
0.37310969927489
-0.00010516051172404
0.37317015937495
-0.00012418750282869
0.3732399139125
-0.00014319879136248
0.37331896297695
-0.00016220044371444
0.37340729467345
-0.00018116885700475
0.37350486609404
-0.00020004020371207
0.37361160418798
-0.0002187510369497
0.37372740098466
-0.00023722820160943
0.37385213867191
-0.00025544968546258
0.37398567830854
-0.00027337209287239
0.37412790035871
-0.00029103441634261
0.37427865552466
-0.00030837757099744
0.37443783944191
-0.00032549243155812
0.3746052695461
-0.00034222226074342
0.37478085773523
-0.00035875675002811
0.37496433374793
-0.0003747292941999
0.37515565478297
-0.00039059695922633
0.37535437812671
-0.00040555471199735
0.37556061432475
-0.00042071630729798
0.37577358405372
-0.00043428862872963
0.37599381428611
-0.00044890374890503
0.37621981279717
-0.00046048535430694
0.37645311529236
-0.00047514106861648
0.37669063795678
-0.00048352855261966
-0.00049967527786831
0.37693625444519
0.35201535935086
-1.4047748829819e-05
0.35202872670902
-4.2028133617042e-05
0.35205104326603
-7.0138307594596e-05
0.35208232872798
-9.8259979100067e-05
0.35212258427031
-0.00012634819179444
0.35217180384729
-0.00015438015061453
0.35222998701268
-0.00018237072862568
0.3522971442053
-0.00021035604295482
0.35237328628513
-0.0002383425809842
0.35245841280449
-0.0002662954323811
0.35255249562877
-0.00029412308246045
0.35265548237298
-0.00032173783423501
0.35276729056608
-0.00034903644631561
0.35288783238845
-0.00037599155815397
0.35301699883729
-0.00040253859069482
0.35315470153432
-0.00042873716126324
0.35330081759294
-0.00045449367637763
0.35345527181156
-0.00047994669609775
0.35361790305445
-0.00050485354866846
0.35378865481422
-0.00052950855428696
0.35396727360582
-0.00055334812966321
0.35415375700314
-0.00057708040014504
0.35434766767961
-0.00059946543171125
0.35454917272164
-0.00062222139255897
0.35475746860912
-0.0006425845593327
0.35497317275727
-0.00066460794041019
0.35519470227171
-0.00068201491219205
0.35542375924295
-0.00070419808310238
0.35565702134977
-0.00071679070130811
-0.00074132517912284
0.35589867120748
0.33225832954079
-1.8333384888115e-05
0.33227120425151
-5.4902902698943e-05
0.33229270842826
-9.1642542999586e-05
0.33232286875529
-0.00012842036425204
0.33236169847571
-0.00016517796927878
0.33240920927414
-0.00020189100494144
0.33246541984894
-0.00023858135799125
0.33253035722675
-0.00027529347404854
0.33260404557247
-0.00031203097858764
0.3326864981281
-0.00034874803858921
0.33277770452311
-0.00038532952661552
0.33287763784191
-0.00042167120090524
0.33298624732906
-0.00045764597996585
0.33310348307884
-0.00049322735326133
0.3332292738831
-0.00052832943903849
0.33336357133613
-0.0005630346573858
0.33350628587059
-0.00059720825287459
0.33365738007886
-0.00063104094566061
0.33381671915315
-0.00066419266343768
0.33398428792515
-0.00069707736627336
0.33415985184505
-0.00072891208897044
0.33434346221734
-0.00076069081162383
0.33453468337078
-0.00079068662401508
0.33473376010185
-0.0008212981624996
0.33493984817415
-0.00084867267039224
0.33515369594628
-0.00087845575152837
0.33537359019217
-0.00090190919713666
0.33560149085231
-0.0009320987820906
0.33583375803844
-0.00094905792498818
-0.00098269000552463
0.33607512282562
0.31361016075871
-2.2436813871409e-05
0.31362253287718
-6.7275074065719e-05
0.3136432244502
-0.0001123341689976
0.31367227663282
-0.00015747259919991
0.31370971688392
-0.00020261827159552
0.3137555763012
-0.00024775047224715
0.31380989561485
-0.00029290072028086
0.31387272202759
-0.00033811993414177
0.31394409655508
-0.00038340555198403
0.31402404979103
-0.00042870131912581
0.31411259327386
-0.00047387305258466
0.31420973087768
-0.00051880884660029
0.31431544980041
-0.00056336494318615
0.31442974552194
-0.00060752311414398
0.31455259213956
-0.00065117609478995
0.31468398965676
-0.00069443221179807
0.31482388912676
-0.00073710775907762
0.31497229985712
-0.00077945171156248
0.31512911980233
-0.00082101264346058
0.31529438549284
-0.00086234309121454
0.31546788624881
-0.00090241287890673
0.31564974070204
-0.00094254529873014
0.31583951590965
-0.0009804618653065
0.31603755437155
-0.0010193366582575
0.31624296304681
-0.0010540813795449
0.31645665464429
-0.0010921473832971
0.31667675641881
-0.0011220110061862
0.31690554595052
-0.001160888348368
0.317138985521
-0.0011824975290329
-0.0012261675632413
0.31738246304326
0.29600860980204
-2.6344802660231e-05
0.29602044484891
-7.9110170026145e-05
0.29604026930857
-0.00013215867775381
0.29606814275276
-0.00018534609187904
0.29610411013618
-0.0002385857024736
0.29614822504769
-0.00029186543014845
0.29620055336793
-0.00034522908566139
0.29626116558725
-0.00039873219744079
0.29633012260936
-0.00045236261674336
0.29640747571636
-0.0005060544675944
0.29649326232452
-0.00055965970085278
0.2965875222037
-0.00061306876473731
0.29669028652452
-0.00066612930167099
0.29680160328264
-0.00071883990887224
0.29692149919739
-0.00077107204498494
0.29705003080333
-0.00082296385232447
0.29718719719165
-0.00087427418101986
0.29733306310729
-0.00092531766019081
0.29748756638319
-0.00097551595161848
0.29765080535245
-0.0010255820923511
0.29782259968683
-0.0010742072446827
0.29800314805759
-0.0011230937007621
0.29819202436139
-0.0011693382001286
0.2983896857602
-0.0012169980882049
0.29859518781428
-0.0012595834647134
0.29880963247534
-0.0013065920757657
0.29903097024537
-0.0013433488077445
0.2992618384858
-0.0013917566202834
0.29949775549341
-0.0014184145671419
-0.001473254455929
0.29974484235374
0.27939492422048
-3.0034545045117e-05
0.27940615794119
-9.0343934648948e-05
0.279425011983
-0.00015101276337021
0.27945156668945
-0.00021190084152237
0.27948588667915
-0.00027290573436891
0.27952805043636
-0.00033402922855206
0.27957815148591
-0.0003953301752081
0.27963628602786
-0.00045686677830016
0.2797025372445
-0.00051861387103323
0.27977697985657
-0.0005804971161981
0.27985968057864
-0.00064236045817201
0.27995071953145
-0.0007041077517246
0.28005017718641
-0.00076558698957378
0.28015816036136
-0.00082682311581212
0.28027475505702
-0.00088766677153506
0.28040008174491
-0.00094829057032505
0.28053419474983
-0.0010083872151542
0.28067722252958
-0.0010683454686085
0.28082915035882
-0.0011274438088594
0.28099014807101
-0.0011865798322461
0.28116007352392
-0.0012441327248789
0.28133921726718
-0.0013022374712705
0.28152716712196
-0.0013572880819607
0.2817245096908
-0.0014143406842935
0.28193025338107
-0.0014653271822587
0.28214570904124
-0.0015220477635876
0.28236864828347
-0.0015662880778185
0.28260209718864
-0.0016252055533536
0.28284111586824
-0.0016574332738596
-0.0017247453169828
0.28309260670023
0.26371365158
-3.3476713299515e-05
0.26372419791102
-0.00010089030571733
0.26374194462669
-0.00016875951897297
0.26376699390267
-0.00023695015690727
0.26379943078276
-0.00030534265300578
0.26383935968225
-0.00037395816573926
0.26388690309106
-0.00044287362069205
0.26394218439367
-0.00051214811667162
0.26400531069854
-0.00058174021055429
0.26407638223039
-0.00065156868174108
0.26415549770467
-0.00072147596501162
0.26424278114343
-0.00079139122209858
0.26433836665601
-0.00086117253266602
0.26444242502561
-0.00093088151506251
0.26455510720204
-0.0010003489766184
0.2646766039235
-0.0010697873197241
0.26480703139208
-0.0011388147108244
0.26494658922826
-0.0012079033313566
0.26509531785663
-0.0012761724631397
0.2652534675317
-0.0013447295329188
0.26542094327652
-0.0014116084948408
0.26559813817843
-0.001479432398223
0.26578466416576
-0.0015438140940648
0.26598124955642
-0.0016109260998163
0.26618686665594
-0.001670944306545
0.26640304857268
-0.0017382297053367
0.26662740038407
-0.0017906399142521
0.26686334969044
-0.0018611548846954
0.26710551384988
-0.0018995974574663
-0.0019808156724565
0.2673615841794
0.24891245659208
-3.6640649268159e-05
0.24892221652059
-0.00011065026969158
0.24893870064299
-0.00018524367671428
0.24896203157743
-0.00026028112621144
0.24899231472556
-0.0003356258352388
0.24902968073024
-0.00041132420380011
0.24907428131657
-0.00048747423950412
0.24912626730484
-0.00056413413663648
0.24918577022832
-0.00064124316475
0.24925291680227
-0.00071871528559897
0.24932783940483
-0.00079639859645176
0.24941070830544
-0.00087426015079564
0.24950171431536
-0.0009521785696809
0.24960109580962
-0.0010302630356896
0.24970907299883
-0.0011083261912846
0.24982591167366
-0.0011866260194123
0.24995179558499
-0.0012646986462421
0.25008700159715
-0.0013431093671801
0.25023163274685
-0.0014208036358937
0.25038602725125
-0.0014991240601343
0.25055014711537
-0.0015757283813527
0.25072449674304
-0.0016537820482265
0.25090872507936
-0.0017280424524649
0.25110371085986
-0.0018059119025086
0.25130840812864
-0.0018756415974102
0.25152457736639
-0.0019543989654158
0.25174968419338
-0.0020157467635807
0.25198755150731
-0.0020990222209027
0.25223240174218
-0.0021444477138956
-0.0022410941982442
0.25249268024466
0.23494194220171
-3.949532147566e-05
0.23495081950773
-0.00011952760762655
0.23496588468669
-0.00020030888749058
0.23498727976743
-0.00028167623840358
0.23501512968091
-0.00036347577954342
0.23504959062975
-0.00044578518291281
0.23509084315131
-0.00052872679058982
0.23513906525246
-0.00061235626669246
0.23519441278456
-0.00069659072495483
0.2352570388336
-0.00078134136208481
0.23532710976066
-0.00086646955009424
0.23540484274454
-0.00095199316061243
0.23549048666161
-0.0010378225118224
0.23558434912037
-0.0011241255189217
0.235686722222
-0.001210699316588
0.23579794956337
-0.0012978533839383
0.23591828680553
-0.0013850359108555
0.23604809211473
-0.001472914698453
0.2361875379721
-0.0015602495147617
0.23633705587291
-0.0016486419821941
0.23649667499078
-0.001735347520038
0.23666701703504
-0.0018241241132018
0.23684778321997
-0.0019088086578038
0.23704000714686
-0.001998135849837
0.23724264910409
-0.0020782835748733
0.23745769300821
-0.0021694428898931
0.23768250827266
-0.0022405620482591
0.23792128546738
-0.0023377994356946
0.23816793376652
-0.0023910960323594
-0.002504731061057
0.23843157060844
0.22175548676193
-4.2012320412613e-05
0.22176339453872
-0.00012743541272271
0.22177689554763
-0.00021380992462052
0.22179615045068
-0.00030093116940025
0.22182130253879
-0.00038862789509595
0.22185253195986
-0.00047701463098478
0.22189004620322
-0.00056624106035691
0.22193404855236
-0.00065635864177193
0.22198471789137
-0.00074726008923583
0.22204223286759
-0.00083885636307012
0.22210679340214
-0.0009310301086957
0.22217866257124
-0.0010238623532553
0.22225814696389
-0.0011173069272872
0.22234562266061
-0.0012116012379802
0.22244145443088
-0.0013065311085153
0.22254606375957
-0.0014024627338783
0.22265978123389
-0.0014987534058125
0.22278304748755
-0.0015961809724334
0.22291611078846
-0.0016933128354793
0.22305949777101
-0.0017920289843414
0.22321331556397
-0.0018891653322097
0.22337830502283
-0.0019891135911692
0.22355423663358
-0.002084740287369
0.22374229799834
-0.0021861972334149
0.22394148573852
-0.0022774713336681
0.22415399294488
-0.00238195011493
0.22437715309633
-0.0024637222182273
0.22461547485737
-0.0025761212150494
0.22486267174162
-0.0026382929342158
-0.0027704660106503
0.22512840667213
0.20930908772091
-4.4168115521861e-05
0.20931595313088
-0.00013430084809869
0.20932776589171
-0.00022562271083556
0.20934470371708
-0.00031786901996394
0.20936692646784
-0.00041085067065912
0.2093946358411
-0.00050472402876118
0.20942806358776
-0.00059966883106971
0.20946743550431
-0.00069573058204309
0.20951295109316
-0.00079277570128485
0.20956481193299
-0.00089071722574218
0.20962324950369
-0.0009894677016725
0.20968857040707
-0.001089183278532
0.20976113714006
-0.0011898736815795
0.20984139083115
-0.0012918549500106
0.20992976796911
-0.0013949082668356
0.2100267647314
-0.0014994595161981
0.21013278855241
-0.0016047772463238
0.21024835953687
-0.0017117519761269
0.21037380855932
-0.0018187618766878
0.21050975325759
-0.0019279737011787
0.21065639257208
-0.0020358046648702
0.21081458005308
-0.0021473010902125
0.21098417779809
-0.0022543380501091
0.21116651803488
-0.0023685374878771
0.21136066923143
-0.0024716225476213
0.21156900957385
-0.0025902904747476
0.21178890870291
-0.0026836213644286
0.2120251213392
-0.0028123338682174
0.21227131626255
-0.0028844878737273
-0.0030366814438435
0.21253753167823
0.19756121385408
-4.5945461253232e-05
0.19756698184744
-0.00014006886425494
0.19757701057755
-0.0002356514637518
0.19759149255917
-0.0003323510243082
0.19761060177571
-0.00042995990962642
0.19763455836944
-0.00052868064473298
0.19766361476733
-0.00062872525085737
0.19769801561355
-0.00073013144996027
0.19773797763942
-0.00083273774844645
0.19778372193715
-0.00093646154452842
0.19783550803144
-0.0010412538165769
0.19789368152854
-0.0011473567959938
0.19795865698768
-0.0012548491606194
0.19803093553509
-0.00136413351705
0.19811102215775
-0.0014749949086563
0.19819948157504
-0.0015879189524061
0.19829679851486
-0.0017020942046012
0.19840356505357
-0.0018185185330801
0.19852020242164
-0.0019353992625888
0.19864740668495
-0.0020551779821338
0.19878548900411
-0.002173887001307
0.19893539379296
-0.0022972058962033
0.19909710986001
-0.0024160541339685
0.19927208795021
-0.0025435155948041
0.19945951203548
-0.0026590466493225
0.1996619150591
-0.0027926935147391
0.19987678101879
-0.002898487340196
0.20010901799164
-0.0030445708568392
0.20035243776027
-0.0031279076574425
-0.0033014773318297
0.2006172336319
0.18647266616694
-4.7334277809917e-05
0.18647730231602
-0.00014470503406711
0.18648548446845
-0.0002438336369832
0.18649741716221
-0.00034428373884932
0.18651328558992
-0.00044582835791664
0.18653332465833
-0.00054871973362919
0.18655780314392
-0.00065320375668315
0.18658698022693
-0.00075930855309978
0.18662108560826
-0.00086684314960795
0.18666035573846
-0.0009757316944345
0.18670507327785
-0.0010859713753243
0.18675561754105
-0.0011979010784074
0.18681244841023
-0.0013116800486446
0.18687612059975
-0.0014278057252522
0.1869472007651
-0.0015460750923043
0.18702631666303
-0.0016670348684598
0.18711402391003
-0.0017898014693335
0.18721098276011
-0.0019154774007184
0.18731770083515
-0.0020421173548023
0.18743494932131
-0.0021724264852819
0.18756315490513
-0.0023020926017371
0.18770334070694
-0.0024373917144629
0.18785564993277
-0.0025683633758862
0.18802161205284
-0.0027094777308221
0.18820059426821
-0.0028380288802916
0.18839521971836
-0.0029873189803621
0.18860318178275
-0.0031064494197172
0.18882944381977
-0.0032708329086527
0.1890681589669
-0.0033666228186827
-0.0035627228253443
0.18932940444508
0.17600644646766
-4.8332003413664e-05
0.17600993817149
-0.00014819675694225
0.17601624682575
-0.00025014231040725
0.17602558588165
-0.00035362281393871
0.17603814844798
-0.00045839094328655
0.17605418007944
-0.00056475138409188
0.17607396113026
-0.00067298482631808
0.17609776048518
-0.00078310792677241
0.17612581603802
-0.00089489872097762
0.17615837472464
-0.0010082903995172
0.17619573657529
-0.0011233332441719
0.17623830808329
-0.0012404726045349
0.17628658637154
-0.0013599583547309
0.1763411717499
-0.0014823911213708
0.17640268274871
-0.0016075861085793
0.17647180336252
-0.0017361554996127
0.17654915027275
-0.0018671483965719
0.17663544843289
-0.002001775577731
0.17673127982024
-0.0021379487586531
0.17683749417101
-0.0022786408523758
0.17695461785929
-0.0024192163059438
0.17708376187636
-0.0025665357472536
0.17722521586658
-0.0027098173814243
0.1773805773462
-0.0028648392255502
0.17754944218272
-0.0030068937315222
0.17773444751763
-0.0031723243297651
0.17793362334445
-0.0033056252606793
0.17815185251814
-0.0034890620960851
0.17838383890987
-0.0035986092235404
-0.003818142166503
0.17863925823673
0.16612763343604
-4.8943476095869e-05
0.16612998992213
-0.00015055326078051
0.16613443395508
-0.00025458636121562
0.1661411845338
-0.00036037341056477
0.16615043932477
-0.0004676457520289
0.16616245021587
-0.00057676229291821
0.16617750413923
-0.0006880387672154
0.16619587455898
-0.00080147836399421
0.16621780254548
-0.00091682672473238
0.16624354014929
-0.0010340280205217
0.16627339852815
-0.0011531916400081
0.16630780373469
-0.0012748778280008
0.16634728128113
-0.0013994359178783
0.16639246719622
-0.0015275770531307
0.16644402163094
-0.0016591405597396
0.16650267440975
-0.0017948082947944
0.16656909335649
-0.0019335673594015
0.16664405945692
-0.0020767416941113
0.16672821964826
-0.0022221089656012
0.16682249566691
-0.0023729168864236
0.16692750275115
-0.0025242234051605
0.16704444044637
-0.0026834734571519
0.16717372910916
-0.0028391060584337
0.16731704245492
-0.0030081525852037
0.16747420362649
-0.0031640549165017
0.16764783016595
-0.0033459508823259
0.16783639103606
-0.0034941861434703
0.16804452178156
-0.0036971928538503
0.16826774303836
-0.003821830492051
-0.0040653998847255
0.16851500074374
0.15680326581566
-4.9180617409025e-05
0.15680451658693
-0.00015180404878459
0.15680713863873
-0.00025720842983885
0.15681135319381
-0.00036458798242989
0.15681735894055
-0.0004736515153458
0.15682540977657
-0.00058481314538786
0.15683579424716
-0.00069842325396458
0.15684878526548
-0.00081446939830528
0.15686462206613
-0.00093266354108026
0.15688355626712
-0.0010529622370864
0.15690590367381
-0.0011755390620055
0.15693210170866
-0.0013010758781061
0.15696269483478
-0.0014300290590388
0.15699834379579
-0.0015632260291743
0.15703973932099
-0.0017005360997915
0.15708764495325
-0.0018427139418549
0.15714276912138
-0.0019886915420947
0.15720593607792
-0.0021399086650885
0.15727784970503
-0.0022940226067943
0.15735948917759
-0.0024545563728104
0.15745155458038
-0.0026162888213074
0.15755531453884
-0.0027872334285665
0.15767132742896
-0.0029551189609321
0.15780131249126
-0.0031381376594155
0.15794535460827
-0.003308097044823
0.15810598303716
-0.0035065793220557
0.15828220935098
-0.0036704124676313
0.1584782575957
-0.003893241108468
0.1586907206824
-0.0040342935882133
-0.0043021635965908
0.15892748438373
0.14800223175167
-4.9061454126791e-05
0.14800242542105
-0.0001519977343705
0.14800329864788
-0.00025808167285366
0.14800507210078
-0.00036636145127745
0.14800794255519
-0.00047652198527548
0.14801216164576
-0.00058903225110649
0.1480180147856
-0.0007042764084485
0.14802576947429
-0.00082222410123384
0.14803565844657
-0.00094255252711599
0.14804792737568
-0.001065231179653
0.14806289031839
-0.0011905020177971
0.14808098756114
-0.0013191731337937
0.14810277300796
-0.0014518145185653
0.14812892041628
-0.0015893734501629
0.14816013978213
-0.0017317554781523
0.14819721505122
-0.0018797892234171
0.14824088431258
-0.0020323608157157
0.14829200052307
-0.0021910248876925
0.14835131540941
-0.0023533375048919
0.14841984723217
-0.0025230882069978
0.14849837889008
-0.0026948204900896
0.14858821595543
-0.0028770705042586
0.14869007575878
-0.0030569787738864
0.14880565942573
-0.0032537213352995
0.14893538536531
-0.0034378229925551
0.14908158838023
-0.0036527823444447
0.14924393853185
-0.0038327626260839
0.14942608790245
-0.0040753904854145
0.1496259148738
-0.004234120565651
-0.0045261648668814
0.14984991613704
0.13969516466709
-4.8608876496195e-05
0.13969436522974
-0.00015119831379833
0.13969358912509
-0.00025730558487517
0.13969305354388
-0.00036582588614352
0.13969295045572
-0.0004764189123513
0.13969352527411
-0.00058960708393555
0.13969505590837
-0.0007058070562332
0.1396977998941
-0.00082496809971704
0.13970197948732
-0.00094673213228717
0.13970782934995
-0.0010710810536603
0.13971565611249
-0.0011983287911523
0.13972589426464
-0.0013294112964726
0.13973909802181
-0.0014650182859645
0.13975594179437
-0.0016062172328633
0.13977714402966
-0.0017529577234183
0.13980349490326
-0.001906140106949
0.13983575147466
-0.0020646173968394
0.13987477960529
-0.0022300530278693
0.13992136973538
-0.0023999276441433
0.13997655805508
-0.0025782765354433
0.14004120866773
-0.0027594711108127
0.14011662796632
-0.0029524898101922
0.14020370841005
-0.0031440592240409
0.14030407379283
-0.0033540867235545
0.14041850897744
-0.0035522581815944
0.14054910362629
-0.0037833769967545
0.14069624972913
-0.0039799087315297
0.14086291411347
-0.0042420548718164
0.14104844681556
-0.0044196532697216
-0.0047352515622146
0.14125753350803
0.13185434560236
-4.784976626354e-05
0.13185262803585
-0.00014948076720313
0.1318503221079
-0.00025499967685889
0.13184763879283
-0.00036314259002339
0.13184476245208
-0.00047354258914644
0.13184192889168
-0.00058677353965616
0.13183940506189
-0.00070328324109011
0.13183743429359
-0.00082299734479183
0.13183622455998
-0.00094552241085597
0.13183599452507
-0.00107085103002
0.13183703892431
-0.0011993732008856
0.13183977801249
-0.0013321503946777
0.13184475861032
-0.0014699988934382
0.13185264252971
-0.0016141011617228
0.13186414779767
-0.0017644630006693
0.13188005462373
-0.0019220469422143
0.13190113100694
-0.0020856937890276
0.13192823694106
-0.0022571589707481
0.1319621936925
-0.0024338844038815
0.13200403492939
-0.0026201177800765
0.13205469392796
-0.0028101301162947
0.13211546725417
-0.0030132631423533
0.13218738834998
-0.0032159803245904
0.13227202928126
-0.0034387276582833
0.13237043889886
-0.003650667801233
0.13248452985201
-0.0038974679505912
0.13261532293402
-0.004110701813072
0.13276517419095
-0.0043919061275962
0.13293503936231
-0.0045895184400322
-0.004927512743562
0.1331273005438
0.12445360907193
-4.6812521367949e-05
0.12445105640588
-0.00014692812893809
0.12444735593354
-0.00025129923303036
0.12444270891543
-0.000358495599259
0.12443728849113
-0.0004681221902395
0.1244313179357
-0.00058080300753087
0.12442505153926
-0.0006970168659001
0.12441871579591
-0.00081666162089685
0.12441250180278
-0.00093930843559581
0.12440660769918
-0.0010649569430777
0.12440131220663
-0.0011940777240243
0.12439701217212
-0.0013278503752351
0.12439424078972
-0.0014672275256257
0.12439363301664
-0.0016134934029837
0.12439590170658
-0.0017667317047177
0.12440179754097
-0.0019279427905542
0.1244120988573
-0.0020959951190234
0.12442763324925
-0.0022726933760231
0.12444925318855
-0.0024555043559031
0.12447796169552
-0.0026488262990172
0.12451474393141
-0.0028469123630594
0.12456089600017
-0.0030594152206919
0.12461750509984
-0.0032725894322528
0.12468623803085
-0.0035074605955429
0.12476813086872
-0.0037325606434789
0.12486529117442
-0.0039946282588329
0.12497865837924
-0.0042240690188512
0.12511076125957
-0.0045240090079612
0.12526344537802
-0.0047422025586591
-0.0051020304587451
0.12543796309164
0.11746825859633
-4.5527372182313e-05
0.11746495645849
-0.00014362603330822
0.11746000465971
-0.0002463474781274
0.11745359225726
-0.00035208323962072
0.11744587817134
-0.0004604081448467
0.11743706913678
-0.0005719940109574
0.11742740423623
-0.00068735200083274
0.11741709026267
-0.00080634768065961
0.11740630084181
-0.00092851904623982
0.11739521312689
-0.0010538692582857
0.11738408709587
-0.0011829517220476
0.11737328715779
-0.0013170504654917
0.11736332637944
-0.0014572667750724
0.11735479805686
-0.0016049651078637
0.11734840745908
-0.0017603411340886
0.11734485323925
-0.0019243885975894
0.11734493372493
-0.0020960756311615
0.11734940516653
-0.0022771648435283
0.11735917843571
-0.0024652776501865
0.11737515828706
-0.00266480617434
0.11739842322202
-0.002870177320543
0.11743018706192
-0.0030911790812732
0.1174715985232
-0.0033140009121511
0.11752445968054
-0.0035603217691675
0.11758957870279
-0.0037976796796243
0.11766993103778
-0.0040749806052396
0.11776498844923
-0.0043191264396314
0.11787958669959
-0.0046386072663069
0.11801175102801
-0.0048743668951171
-0.0052600168921648
0.11816973745078
0.11087499002584
-4.4032549658139e-05
0.11087103320425
-0.00013966927362637
0.11086497953726
-0.00024029387542903
0.11085700394298
-0.00034410770860281
0.11084725480608
-0.00045065906874459
0.1108359194599
-0.00056065872280858
0.11082321923995
-0.00067465183624641
0.11080933751233
-0.00079246600618943
0.11079443027667
-0.00091361186190076
0.11077865512447
-0.0010380941560746
0.11076224911963
-0.001166545766148
0.11074553806115
-0.0013003394552838
0.11072900857202
-0.0014407373336409
0.11071320361949
-0.0015891602026539
0.11069881723852
-0.0017459548000013
0.11068647880346
-0.0019120502090161
0.11067701629072
-0.0020866131642391
0.11067107091673
-0.0022712195145864
0.11066966148458
-0.0024638682618294
0.11067347748767
-0.0026686222196715
0.11068384689516
-0.0028805467681037
0.1107016152888
-0.0031089475125386
0.11072835478378
-0.003340740441854
0.11076543158692
-0.0035973986041292
0.1108139896144
-0.0038462377357676
0.1108774875761
-0.0041384785925178
0.1109540388263
-0.0043956777125408
0.11105331396481
-0.0047378824257405
0.11116101729711
-0.0049820702481002
-0.0054030748575826
0.11130407523725
0.10465181066172
-4.2377312803203e-05
0.10464731872923
-0.00013517742367652
0.1046403218012
-0.00023329703153368
0.10463098868817
-0.00033477467837127
0.10461946651435
-0.00043913697527627
0.1046059213764
-0.00054711366252093
0.1045905459971
-0.00065927653218863
0.10457349656294
-0.00077541664527484
0.1045549321897
-0.00089504756040592
0.1045349960191
-0.0010181580560995
0.10451389035061
-0.0011454401675139
0.10449189309705
-0.001278342270963
0.10446945078184
-0.0014182950872189
0.10444705385075
-0.0015667633398605
0.10442537646289
-0.0017242774799688
0.10440498390238
-0.0018916577156458
0.10438672910805
-0.002068358436241
0.10437112717883
-0.0022556176504073
0.10435932137233
-0.0024520625186882
0.1043516922009
-0.0026609931091512
0.10434998333242
-0.0028788379576067
0.10435427522339
-0.0031132394578434
0.10436730383765
-0.0033537691067331
0.1043885786218
-0.0036186734349426
0.10442192702211
-0.003879586178944
0.10446692964595
-0.0041834812551513
0.10452662188698
-0.0044553699888824
0.10460834656103
-0.0048196071326541
0.10469885364171
-0.0050725773614622
-0.0055296486647465
0.10482542740854
0.098777929208665
-4.058833869758e-05
0.098773032694269
-0.00013028100520903
0.098765229865514
-0.0002254942994267
0.098754742113979
-0.00032428702206766
0.098741699905549
-0.00042609485991592
0.098726279323424
-0.00053169317133485
0.098708633200749
-0.0006416304986356
0.098688804930327
-0.00075558846270717
0.098667027976236
-0.00087327069329175
0.09864343836441
-0.00099456853079633
0.098618205166251
-0.0011202070555433
0.098591561209315
-0.0012516984000701
0.098563895205402
-0.0013906291690841
0.098535637443321
-0.0015385056633412
0.098507412807866
-0.0016960529295681
0.098479739253809
-0.001863984246057
0.098453453561369
-0.0020420728271481
0.098428999634174
-0.0022311638050435
0.098407560582911
-0.0024306235467639
0.098389306115757
-0.0026427387180594
0.098376256758475
-0.0028657886719648
0.098367790231558
-0.0031047729976736
0.098367868415431
-0.0033538473520289
0.098373588887851
-0.003624393963718
0.098393255440558
-0.0038992527829072
0.098418024779231
-0.0042082506400609
0.098464818536219
-0.0045021637875746
0.098513234267153
-0.0048680229029517
0.098592384397651
-0.0051517275329645
0.098733763123383
-0.0056710274402787
0.3946371263507
0.0046474403629611
0.39014864005366
0.0044884862687067
0.38582358790464
0.0043250521209231
0.38166633634546
0.0041572515309228
0.37768111404422
0.0039852222727572
0.37387201094082
0.0038091030744726
0.37024296900984
0.0036290419016798
0.36679777247694
0.0034451965030804
0.3635400402583
0.0032577321884391
0.36047322079753
0.0030668194300395
0.35760058809399
0.0028726326724634
0.3549252384506
0.0026753496118077
0.3524500868655
0.0024751515532186
0.3501778632826
0.0022722235505703
0.34811110861675
0.0020667546332864
0.34625217112147
0.0018589374623195
0.34460320273634
0.0016489683520109
0.34316615559805
0.00143704710482
0.34194277849503
0.0012233770694631
0.34093461335185
0.001008165109312
0.34014299135831
0.00079162195963586
0.33956902778954
0.00057396353456644
0.33921361164868
0.00035541610662842
0.33907736008687
0.0001362515272811
0.33916078534521
-8.3425292895055e-05
0.33946431889935
-0.00030353358900837
0.33998785479903
-0.00052353593457134
0.34073118555533
-0.00074333079152255
0.34169389083182
-0.00096270531171226
0.34287532534306